

     ************************************************************************
     *************** Dalton - An Electronic Structure Program ***************
     ************************************************************************

    This is output from DALTON release Dalton2016.1 (2016)
         ( Web site: http://daltonprogram.org )

   ----------------------------------------------------------------------------

    NOTE:
     
    Dalton is an experimental code for the evaluation of molecular
    properties using (MC)SCF, DFT, CI, and CC wave functions.
    The authors accept no responsibility for the performance of
    the code or for the correctness of the results.
     
    The code (in whole or part) is provided under a licence and
    is not to be reproduced for further distribution without
    the written permission of the authors or their representatives.
     
    See the home page "http://daltonprogram.org" for further information.
     
    If results obtained with this code are published,
    the appropriate citations would be both of:
     
       K. Aidas, C. Angeli, K. L. Bak, V. Bakken, R. Bast,
       L. Boman, O. Christiansen, R. Cimiraglia, S. Coriani,
       P. Dahle, E. K. Dalskov, U. Ekstroem,
       T. Enevoldsen, J. J. Eriksen, P. Ettenhuber, B. Fernandez,
       L. Ferrighi, H. Fliegl, L. Frediani, K. Hald, A. Halkier,
       C. Haettig, H. Heiberg, T. Helgaker, A. C. Hennum,
       H. Hettema, E. Hjertenaes, S. Hoest, I.-M. Hoeyvik,
       M. F. Iozzi, B. Jansik, H. J. Aa. Jensen, D. Jonsson,
       P. Joergensen, J. Kauczor, S. Kirpekar,
       T. Kjaergaard, W. Klopper, S. Knecht, R. Kobayashi, H. Koch,
       J. Kongsted, A. Krapp, K. Kristensen, A. Ligabue,
       O. B. Lutnaes, J. I. Melo, K. V. Mikkelsen, R. H. Myhre,
       C. Neiss, C. B. Nielsen, P. Norman, J. Olsen,
       J. M. H. Olsen, A. Osted, M. J. Packer, F. Pawlowski,
       T. B. Pedersen, P. F. Provasi, S. Reine, Z. Rinkevicius,
       T. A. Ruden, K. Ruud, V. Rybkin, P. Salek, C. C. M. Samson,
       A. Sanchez de Meras, T. Saue, S. P. A. Sauer,
       B. Schimmelpfennig, K. Sneskov, A. H. Steindal,
       K. O. Sylvester-Hvid, P. R. Taylor, A. M. Teale,
       E. I. Tellgren, D. P. Tew, A. J. Thorvaldsen, L. Thoegersen,
       O. Vahtras, M. A. Watson, D. J. D. Wilson, M. Ziolkowski
       and H. Agren,
       "The Dalton quantum chemistry program system",
       WIREs Comput. Mol. Sci. 2014, 4:269–284 (doi: 10.1002/wcms.1172)
     
    and
     
       Dalton, a Molecular Electronic Structure Program,
       Release Dalton2016.1 (2016), see http://daltonprogram.org
   ----------------------------------------------------------------------------

    Authors in alphabetical order (major contribution(s) in parenthesis):

  Kestutis Aidas,           Vilnius University,           Lithuania   (QM/MM)
  Celestino Angeli,         University of Ferrara,        Italy       (NEVPT2)
  Keld L. Bak,              UNI-C,                        Denmark     (AOSOPPA, non-adiabatic coupling, magnetic properties)
  Vebjoern Bakken,          University of Oslo,           Norway      (DALTON; geometry optimizer, symmetry detection)
  Radovan Bast,             UiT The Arctic U. of Norway,  Norway      (DALTON installation and execution frameworks)
  Pablo Baudin,             University of Valencia,       Spain       (Cholesky excitation energies)
  Linus Boman,              NTNU,                         Norway      (Cholesky decomposition and subsystems)
  Ove Christiansen,         Aarhus University,            Denmark     (CC module)
  Renzo Cimiraglia,         University of Ferrara,        Italy       (NEVPT2)
  Sonia Coriani,            University of Trieste,        Italy       (CC module, MCD in RESPONS)
  Janusz Cukras,            University of Trieste,        Italy       (MChD in RESPONS)
  Paal Dahle,               University of Oslo,           Norway      (Parallelization)
  Erik K. Dalskov,          UNI-C,                        Denmark     (SOPPA)
  Thomas Enevoldsen,        Univ. of Southern Denmark,    Denmark     (SOPPA)
  Janus J. Eriksen,         Aarhus University,            Denmark     (Polarizable embedding model, TDA)
  Rasmus Faber,             University of Copenhagen,     Denmark     (Vib.avg. NMR with SOPPA, parallel AO-SOPPA)
  Berta Fernandez,          U. of Santiago de Compostela, Spain       (doublet spin, ESR in RESPONS)
  Lara Ferrighi,            Aarhus University,            Denmark     (PCM Cubic response)
  Heike Fliegl,             University of Oslo,           Norway      (CCSD(R12))
  Luca Frediani,            UiT The Arctic U. of Norway,  Norway      (PCM)
  Bin Gao,                  UiT The Arctic U. of Norway,  Norway      (Gen1Int library)
  Christof Haettig,         Ruhr-University Bochum,       Germany     (CC module)
  Kasper Hald,              Aarhus University,            Denmark     (CC module)
  Asger Halkier,            Aarhus University,            Denmark     (CC module)
  Frederik Beyer Hansen,    University of Copenhagen,     Denmark     (Parallel AO-SOPPA)
  Erik D. Hedegaard,        Univ. of Southern Denmark,    Denmark     (Polarizable embedding model, QM/MM)
  Hanne Heiberg,            University of Oslo,           Norway      (geometry analysis, selected one-electron integrals)
  Trygve Helgaker,          University of Oslo,           Norway      (DALTON; ABACUS, ERI, DFT modules, London, and much more)
  Alf Christian Hennum,     University of Oslo,           Norway      (Parity violation)
  Hinne Hettema,            University of Auckland,       New Zealand (quadratic response in RESPONS; SIRIUS supersymmetry)
  Eirik Hjertenaes,         NTNU,                         Norway      (Cholesky decomposition)
  Maria Francesca Iozzi,    University of Oslo,           Norway      (RPA)
  Brano Jansik              Technical Univ. of Ostrava    Czech Rep.  (DFT cubic response)
  Hans Joergen Aa. Jensen,  Univ. of Southern Denmark,    Denmark     (DALTON; SIRIUS, RESPONS, ABACUS modules, London, and much more)
  Dan Jonsson,              UiT The Arctic U. of Norway,  Norway      (cubic response in RESPONS module)
  Poul Joergensen,          Aarhus University,            Denmark     (RESPONS, ABACUS, and CC modules)
  Maciej Kaminski,          University of Warsaw,         Poland      (CPPh in RESPONS)
  Joanna Kauczor,           Linkoeping University,        Sweden      (Complex polarization propagator (CPP) module)
  Sheela Kirpekar,          Univ. of Southern Denmark,    Denmark     (Mass-velocity & Darwin integrals)
  Wim Klopper,              KIT Karlsruhe,                Germany     (R12 code in CC, SIRIUS, and ABACUS modules)
  Stefan Knecht,            ETH Zurich,                   Switzerland (Parallel CI and MCSCF)
  Rika Kobayashi,           Australian National Univ.,    Australia   (DIIS in CC, London in MCSCF)
  Henrik Koch,              NTNU,                         Norway      (CC module, Cholesky decomposition)
  Jacob Kongsted,           Univ. of Southern Denmark,    Denmark     (Polarizable embedding model, QM/MM)
  Andrea Ligabue,           University of Modena,         Italy       (CTOCD, AOSOPPA)
  Nanna H. List             Univ. of Southern Denmark,    Denmark     (Polarizable embedding model)
  Ola B. Lutnaes,           University of Oslo,           Norway      (DFT Hessian)
  Juan I. Melo,             University of Buenos Aires,   Argentina   (LRESC, Relativistic Effects on NMR Shieldings)
  Kurt V. Mikkelsen,        University of Copenhagen,     Denmark     (MC-SCRF and QM/MM)
  Rolf H. Myhre,            NTNU,                         Norway      (Cholesky, subsystems and ECC2)
  Christian Neiss,          Univ. Erlangen-Nuernberg,     Germany     (CCSD(R12))
  Christian B. Nielsen,     University of Copenhagen,     Denmark     (QM/MM)
  Patrick Norman,           Linkoeping University,        Sweden      (Cubic response and complex frequency response in RESPONS)
  Jeppe Olsen,              Aarhus University,            Denmark     (SIRIUS CI/density modules)
  Jogvan Magnus H. Olsen,   Univ. of Southern Denmark,    Denmark     (Polarizable embedding model, QM/MM)
  Anders Osted,             Copenhagen University,        Denmark     (QM/MM)
  Martin J. Packer,         University of Sheffield,      UK          (SOPPA)
  Filip Pawlowski,          Kazimierz Wielki University,  Poland      (CC3)
  Morten N. Pedersen,       Univ. of Southern Denmark,    Denmark     (Polarizable embedding model)
  Thomas B. Pedersen,       University of Oslo,           Norway      (Cholesky decomposition)
  Patricio F. Provasi,      University of Northeastern,   Argentina   (Analysis of coupling constants in localized orbitals)
  Zilvinas Rinkevicius,     KTH Stockholm,                Sweden      (open-shell DFT, ESR)
  Elias Rudberg,            KTH Stockholm,                Sweden      (DFT grid and basis info)
  Torgeir A. Ruden,         University of Oslo,           Norway      (Numerical derivatives in ABACUS)
  Kenneth Ruud,             UiT The Arctic U. of Norway,  Norway      (DALTON; ABACUS magnetic properties and much more)
  Pawel Salek,              KTH Stockholm,                Sweden      (DALTON; DFT code)
  Claire C. M. Samson       University of Karlsruhe       Germany     (Boys localization, r12 integrals in ERI)
  Alfredo Sanchez de Meras, University of Valencia,       Spain       (CC module, Cholesky decomposition)
  Trond Saue,               Paul Sabatier University,     France      (direct Fock matrix construction)
  Stephan P. A. Sauer,      University of Copenhagen,     Denmark     (SOPPA(CCSD), SOPPA prop., AOSOPPA, vibrational g-factors)
  Bernd Schimmelpfennig,    Forschungszentrum Karlsruhe,  Germany     (AMFI module)
  Kristian Sneskov,         Aarhus University,            Denmark     (Polarizable embedding model, QM/MM)
  Arnfinn H. Steindal,      UiT The Arctic U. of Norway,  Norway      (parallel QM/MM, Polarizable embedding model)
  Casper Steinmann,         Univ. of Southern Denmark,    Denmark     (QFIT, Polarizable embedding model)
  K. O. Sylvester-Hvid,     University of Copenhagen,     Denmark     (MC-SCRF)
  Peter R. Taylor,          VLSCI/Univ. of Melbourne,     Australia   (Symmetry handling ABACUS, integral transformation)
  Andrew M. Teale,          University of Nottingham,     England     (DFT-AC, DFT-D)
  David P. Tew,             University of Bristol,        England     (CCSD(R12))
  Olav Vahtras,             KTH Stockholm,                Sweden      (triplet response, spin-orbit, ESR, TDDFT, open-shell DFT)
  David J. Wilson,          La Trobe University,          Australia   (DFT Hessian and DFT magnetizabilities)
  Hans Agren,               KTH Stockholm,                Sweden      (SIRIUS module, RESPONS, MC-SCRF solvation model)
 --------------------------------------------------------------------------------

     Date and time (Linux)  : Sun Dec 24 15:51:33 2017
     Host name              : chim13-cptrx04.chimie.fundp.ac.be       

 * Work memory size             :    64000000 =  488.28 megabytes.

 * Directories for basis set searches:
   1) /home/pbeaujea/Devels/nachos/tests/tests_files/x
   2) /home/pbeaujea/Devels/DALTON/dalton/basis


Compilation information
-----------------------

 Who compiled             | pbeaujea
 Host                     | chim13-cptrx04.chimie.fundp.ac.be
 System                   | Linux-3.13.0-37-generic
 CMake generator          | Unix Makefiles
 Processor                | x86_64
 64-bit integers          | ON
 MPI                      | OFF
 Fortran compiler         | /usr/bin/gfortran
 Fortran compiler version | GNU Fortran (Ubuntu 4.8.4-2ubuntu1~14.04.3) 4.8.4
 C compiler               | /usr/bin/gcc
 C compiler version       | gcc (Ubuntu 4.8.4-2ubuntu1~14.04.3) 4.8.4
 C++ compiler             | /usr/bin/g++
 C++ compiler version     | g++ (Ubuntu 4.8.4-2ubuntu1~14.04.3) 4.8.4
 Static linking           | OFF
 Last Git revision        | a10ef0cf7cc62686ecfeaafb7364c9b014fdc003
 Configuration time       | 2017-08-26 13:24:47.126107


   Content of the .dal input file
 ----------------------------------

**DALTON INPUT                                    
.DIRECT                                           
.RUN WAVE FUNCTIONS                               
.RUN PROPERTIES                                   
**WAVE FUNCTIONS                                  
.HF                                               
*SCF INPUT                                        
.THRESH                                           
1.0D-11                                           
**PROPERTIES                                      
.VIBANA                                           
*VIBANA                                           
.HESPUN                                           
*END OF                                           


   Content of the .mol file
 ----------------------------

BASIS                                                                          
STO-3G                                                                         
base                                                                           
                                                                               
Atomtypes=3 Angstrom Nosymmetry                                                
Charge=8.0 Atoms=1                                                             
O        0.000000000      0.000000000      0.115905819                         
Charge=1.0 Atoms=1                                                             
H        0.000000000      0.768526167     -0.463623266                         
Charge=1.0 Atoms=1                                                             
H        0.000000000     -0.768526167     -0.463623266                         


       *******************************************************************
       *********** Output from DALTON general input processing ***********
       *******************************************************************

 --------------------------------------------------------------------------------
   Overall default print level:    0
   Print level for DALTON.STAT:    1

    AO-direct calculation (in sections where implemented)
    HERMIT 1- and 2-electron integral sections will be executed
    "Old" integral transformation used (limited to max 255 basis functions)
    Wave function sections will be executed (SIRIUS module)
    Static molecular property section will be executed (ABACUS module)
 --------------------------------------------------------------------------------


   ****************************************************************************
   *************** Output of molecule and basis set information ***************
   ****************************************************************************


    The two title cards from your ".mol" input:
    ------------------------------------------------------------------------
 1: base                                                                    
 2:                                                                         
    ------------------------------------------------------------------------

  Coordinates are entered in Angstrom and converted to atomic units.
          - Conversion factor : 1 bohr = 0.52917721 A

  Atomic type no.    1
  --------------------
  Nuclear charge:   8.00000
  Number of symmetry independent centers:    1
  Number of basis sets to read;    2
  Basis set file used for this atomic type with Z =   8 :
     "/home/pbeaujea/Devels/DALTON/dalton/basis/STO-3G"

  Atomic type no.    2
  --------------------
  Nuclear charge:   1.00000
  Number of symmetry independent centers:    1
  Number of basis sets to read;    2
  Basis set file used for this atomic type with Z =   1 :
     "/home/pbeaujea/Devels/DALTON/dalton/basis/STO-3G"

  Atomic type no.    3
  --------------------
  Nuclear charge:   1.00000
  Number of symmetry independent centers:    1
  Number of basis sets to read;    2
  Basis set file used for this atomic type with Z =   1 :
     "/home/pbeaujea/Devels/DALTON/dalton/basis/STO-3G"


                         SYMGRP: Point group information
                         -------------------------------

@    Point group: C1 


                                 Isotopic Masses
                                 ---------------

                           O          15.994915
                           H           1.007825
                           H           1.007825

                       Total mass:    18.010565 amu
                       Natural abundance:  99.730 %

 Center-of-mass coordinates (a.u.):    0.000000    0.000000    0.096467


  Atoms and basis sets
  --------------------

  Number of atom types :    3
  Total number of atoms:    3

  Basis set used is "STO-3G" from the basis set library.

  label    atoms   charge   prim   cont     basis
  ----------------------------------------------------------------------
  O           1    8.0000    15     5      [6s3p|2s1p]                                        
  H           1    1.0000     3     1      [3s|1s]                                            
  H           1    1.0000     3     1      [3s|1s]                                            
  ----------------------------------------------------------------------
  total:      3   10.0000    21     7
  ----------------------------------------------------------------------

  Threshold for neglecting AO integrals:  1.00D-12


  Cartesian Coordinates (a.u.)
  ----------------------------

  Total number of coordinates:    9
  O       :     1  x   0.0000000000    2  y   0.0000000000    3  z   0.2190302542
  H       :     4  x   0.0000000000    5  y   1.4523039755    6  z  -0.8761209979
  H       :     7  x   0.0000000000    8  y  -1.4523039755    9  z  -0.8761209979


   Interatomic separations (in Angstrom):
   --------------------------------------

            O           H           H     
            ------      ------      ------
 O     :    0.000000
 H     :    0.962542    0.000000
 H     :    0.962542    1.537052    0.000000


  Max    interatomic separation is    1.5371 Angstrom (    2.9046 Bohr)
  between atoms    3 and    2, "H     " and "H     ".

  Min HX interatomic separation is    0.9625 Angstrom (    1.8189 Bohr)


  Bond distances (Angstrom):
  --------------------------

                  atom 1     atom 2       distance
                  ------     ------       --------
  bond distance:  H          O            0.962542
  bond distance:  H          O            0.962542


  Bond angles (degrees):
  ----------------------

                  atom 1     atom 2     atom 3         angle
                  ------     ------     ------         -----
  bond angle:     H          O          H            105.962




 Principal moments of inertia (u*A**2) and principal axes
 --------------------------------------------------------

   IA       0.601202          0.000000    1.000000    0.000000
   IB       1.190508          0.000000    0.000000    1.000000
   IC       1.791710          1.000000    0.000000    0.000000


 Rotational constants
 --------------------

@    The molecule is planar.

               A                   B                   C

         840614.7396         424506.9021         282065.1764 MHz
           28.039890           14.160026            9.408682 cm-1


@  Nuclear repulsion energy :    9.140611968235 Hartree


                     .---------------------------------------.
                     | Starting in Integral Section (HERMIT) |
                     `---------------------------------------'



 ***************************************************************************************
 ****************** Output from **INTEGRALS input processing (HERMIT) ******************
 ***************************************************************************************


 - Using defaults, no **INTEGRALS input found

 Default print level:        1

 * Nuclear model: Point charge

 Calculation of one-electron Hamiltonian integrals.

 Center of mass  (bohr):      0.000000000000      0.000000000000      0.096466546661
 Operator center (bohr):      0.000000000000      0.000000000000      0.000000000000
 Gauge origin    (bohr):      0.000000000000      0.000000000000      0.000000000000
 Dipole origin   (bohr):      0.000000000000      0.000000000000      0.000000000000


     ************************************************************************
     ************************** Output from HERINT **************************
     ************************************************************************

  Total CPU  time used in HERMIT:   0.00 seconds
  Total wall time used in HERMIT:   0.00 seconds


                        .----------------------------------.
                        | End of Integral Section (HERMIT) |
                        `----------------------------------'



                   .--------------------------------------------.
                   | Starting in Wave Function Section (SIRIUS) |
                   `--------------------------------------------'


 *** Output from Huckel module :

     Using EWMO model:          T
     Using EHT  model:          F
     Number of Huckel orbitals each symmetry:    7

 EWMO - Energy Weighted Maximum Overlap - is a Huckel type method,
        which normally is better than Extended Huckel Theory.
 Reference: Linderberg and Ohrn, Propagators in Quantum Chemistry (Wiley, 1973)

 Huckel EWMO eigenvalues for symmetry :  1
          -20.684882      -1.606910      -0.781207      -0.686491      -0.616200
           -0.234633      -0.169576

 **********************************************************************
 *SIRIUS* a direct, restricted step, second order MCSCF program       *
 **********************************************************************

 
     Date and time (Linux)  : Sun Dec 24 15:51:33 2017
     Host name              : chim13-cptrx04.chimie.fundp.ac.be       

 Title lines from ".mol" input file:
     base                                                                    
                                                                             

 Print level on unit LUPRI =   2 is   0
 Print level on unit LUW4  =   2 is   5

@    Restricted, closed shell Hartree-Fock calculation.
 Fock matrices are calculated directly without use of integrals on disk.

 Initial molecular orbitals are obtained according to
 ".MOSTART EWMO  " input option

     Wave function specification
     ============================
@    Wave function type        --- HF ---
@    Number of closed shell electrons          10
@    Number of electrons in active shells       0
@    Total charge of the molecule               0

@    Spin multiplicity and 2 M_S                1         0
@    Total number of symmetries                 1 (point group: C1 )
@    Reference state symmetry                   1 (irrep name : A  )

     Orbital specifications
     ======================
@    Abelian symmetry species          All |    1
@                                          |  A  
                                       --- |  ---
@    Occupied SCF orbitals               5 |    5
@    Secondary orbitals                  2 |    2
@    Total number of orbitals            7 |    7
@    Number of basis functions           7 |    7

     Optimization information
     ========================
@    Number of configurations                 1
@    Number of orbital rotations             10
     ------------------------------------------
@    Total number of variables               11

     Maximum number of Fock   iterations      0
     Maximum number of DIIS   iterations     60
     Maximum number of QC-SCF iterations     60
     Threshold for SCF convergence     1.00D-11


 ***********************************************
 ***** DIIS acceleration of SCF iterations *****
 ***********************************************

 C1-DIIS algorithm; max error vectors =    8

 Iter      Total energy        Error norm    Delta(E)  DIIS dim.
 -----------------------------------------------------------------------------
   1  Screening settings (-IFTHRS, JTDIIS, DIFDEN, times)   -5    1    T  7.53D-04  2.00D-03
@  1    -74.9125624677        7.51150D-01   -7.49D+01    1
      Virial theorem: -V/T =      2.004285
@      MULPOP O      -0.45; H       0.23; H       0.23; 
   1  Level shift: doubly occupied orbital energies shifted by -2.00D-01
 -----------------------------------------------------------------------------
   2  Screening settings (-IFTHRS, JTDIIS, DIFDEN, times)   -5    2    T  2.40D-03  2.00D-03
@  2    -74.9579044994        2.25660D-01   -4.53D-02    2
      Virial theorem: -V/T =      2.006143
@      MULPOP O      -0.37; H       0.19; H       0.19; 
   2  Level shift: doubly occupied orbital energies shifted by -1.00D-01
 -----------------------------------------------------------------------------
   3  Screening settings (-IFTHRS, JTDIIS, DIFDEN, times)   -7    3    F  1.22D-03  2.00D-03
@  3    -74.9629469891        3.49930D-02   -5.04D-03    3
      Virial theorem: -V/T =      2.005369
@      MULPOP O      -0.37; H       0.18; H       0.18; 
   3  Level shift: doubly occupied orbital energies shifted by -2.50D-02
 -----------------------------------------------------------------------------
   4  Screening settings (-IFTHRS, JTDIIS, DIFDEN, times)   -7    4    T  2.13D-03  1.00D-03
@  4    -74.9630687264        1.55935D-03   -1.22D-04    4
      Virial theorem: -V/T =      2.005193
@      MULPOP O      -0.36; H       0.18; H       0.18; 
 -----------------------------------------------------------------------------
   5  Screening settings (-IFTHRS, JTDIIS, DIFDEN, times)   -9    5    F  1.29D-03  1.00D-03
@  5    -74.9630691621        3.08517D-04   -4.36D-07    5
      Virial theorem: -V/T =      2.005183
@      MULPOP O      -0.36; H       0.18; H       0.18; 
 -----------------------------------------------------------------------------
   6  Screening settings (-IFTHRS, JTDIIS, DIFDEN, times)   -9    6    T  1.55D-03  2.00D-03
@  6    -74.9630691811        5.83257D-06   -1.90D-08    6
      Virial theorem: -V/T =      2.005183
@      MULPOP O      -0.36; H       0.18; H       0.18; 
 -----------------------------------------------------------------------------
   7  Screening settings (-IFTHRS, JTDIIS, DIFDEN, times)  -11    7    F  1.34D-03  2.00D-03
@  7    -74.9630691811        2.78871D-08   -5.14D-12    7
      Virial theorem: -V/T =      2.005183
@      MULPOP O      -0.36; H       0.18; H       0.18; 
 -----------------------------------------------------------------------------
   8  Screening settings (-IFTHRS, JTDIIS, DIFDEN, times)  -15    8    F  1.74D-03  2.00D-03
@  8    -74.9630691811        2.25681D-09   -1.42D-14    8
      Virial theorem: -V/T =      2.005183
@      MULPOP O      -0.36; H       0.18; H       0.18; 
 -----------------------------------------------------------------------------
   9  Screening settings (-IFTHRS, JTDIIS, DIFDEN, times)  -15    9    T  3.37D-03  2.00D-03
@  9    -74.9630691811        1.87725D-09   -1.42D-14    8
      Virial theorem: -V/T =      2.005183
@      MULPOP O      -0.36; H       0.18; H       0.18; 
 -----------------------------------------------------------------------------
  10  Screening settings (-IFTHRS, JTDIIS, DIFDEN, times)  -15   10    T  0.00D+00  1.00D-03
@ 10    -74.9630691811        1.75599D-14    1.42D-14    8

@ *** DIIS converged in  10 iterations !
@     Converged SCF energy, gradient:    -74.963069181099    1.76D-14
    - total time used in SIRFCK :              0.00 seconds


 *** SCF orbital energy analysis ***

 Number of electrons :   10
 Orbital occupations :    5

 Sym       Hartree-Fock orbital energies

1 A     -20.24030625    -1.26393015    -0.61739510    -0.44885074    -0.38976339
          0.59764637     0.74031712

    E(LUMO) :     0.59764637 au (symmetry 1)
  - E(HOMO) :    -0.38976339 au (symmetry 1)
  ------------------------------------------
    gap     :     0.98740976 au

 --- Writing SIRIFC interface file

 CPU and wall time for SCF :       0.019       0.018


                       .-----------------------------------.
                       | --- Final results from SIRIUS --- |
                       `-----------------------------------'


@    Spin multiplicity:           1
@    Spatial symmetry:            1 ( irrep  A   in C1  )
@    Total charge of molecule:    0

@    Final HF energy:             -74.963069181099                 
@    Nuclear repulsion:             9.140611968235
@    Electronic energy:           -84.103681149334

@    Final gradient norm:           0.000000000000

 
     Date and time (Linux)  : Sun Dec 24 15:51:33 2017
     Host name              : chim13-cptrx04.chimie.fundp.ac.be       

File label for MO orbitals:  24Dec17   FOCKDIIS

 (Only coefficients > 0.0100 are printed.)

 Molecular orbitals for symmetry species 1  (A  )
 ------------------------------------------------

    Orbital         1        2        3        4        5        6        7
   1 O   :1s    -0.9941   0.2331  -0.0000   0.1020  -0.0000   0.1323  -0.0000
   2 O   :1s    -0.0265  -0.8357   0.0000  -0.5308   0.0000  -0.8787   0.0000
   3 O   :2px    0.0000   0.0000  -0.0000   0.0000   1.0000   0.0000   0.0000
   4 O   :2py   -0.0000   0.0000  -0.6042  -0.0000   0.0000  -0.0000  -0.9917
   5 O   :2pz    0.0042   0.1262   0.0000  -0.7801   0.0000   0.7340  -0.0000
   6 H   :1s     0.0059  -0.1586  -0.4445   0.2783  -0.0000   0.7948   0.8328
   7 H   :1s     0.0059  -0.1586   0.4445   0.2783  -0.0000   0.7948  -0.8328

  Total CPU  time used in SIRIUS :   0.02 seconds
  Total wall time used in SIRIUS :   0.02 seconds

 
     Date and time (Linux)  : Sun Dec 24 15:51:33 2017
     Host name              : chim13-cptrx04.chimie.fundp.ac.be       


                     .---------------------------------------.
                     | End of Wave Function Section (SIRIUS) |
                     `---------------------------------------'



        *****************************************************************
        ******** Output from **PROPE input processing for ABACUS ********
        *****************************************************************



 The following molecular properties will be calculated in this run:
 ------------------------------------------------------------------

 Default print level:        0

      The molecular gradient
      The molecular Hessian
      Vibrational analysis
      Dipole moment gradient
      Direct calculation - no two-electron integrals written or read.
      Natural orbital connection is used
      for perturbation dependent basis sets.


 Changes of defaults for VIBANA:
 -------------------------------

 The vibrational Hessian will be punched to file
 Vibrational analysis for parent molecule only.

 Center of mass dipole origin  :    0.000000    0.000000    0.096467

 Center of mass gauge origin   :    0.000000    0.000000    0.096467


                 .------------------------------------------------.
                 | Starting in Static Property Section (ABACUS) - |
                 `------------------------------------------------'


 
     Date and time (Linux)  : Sun Dec 24 15:51:33 2017
     Host name              : chim13-cptrx04.chimie.fundp.ac.be       

 (ORTBVC) new orbital b-vector no.  4
 is removed because of linear dependence;
 norm of vector after Gram-Schmidt's orthogonalization 4.41770D-15

 (ORTBVC) new orbital b-vector no.  5
 is removed because of linear dependence;
 norm of vector after Gram-Schmidt's orthogonalization 2.71970D-15

 (ORTBVC) NBOSIM reduced from  5 to  3


   ***************************************************************************
   ************************ FINAL RESULTS from ABACUS ************************
   ***************************************************************************


 
     Date and time (Linux)  : Sun Dec 24 15:51:33 2017
     Host name              : chim13-cptrx04.chimie.fundp.ac.be       


                             Molecular geometry (au)
                             -----------------------

 O          0.0000000000            0.0000000000            0.2190302542
 H          0.0000000000            1.4523039755           -0.8761209979
 H          0.0000000000           -1.4523039755           -0.8761209979





                        Molecular wave function and energy
                        ----------------------------------

     Spatial symmetry   1 ( A   )
     Spin multiplicity  1
     2 * M_S            0
     State number       1
     Total charge       0

     Total energy        -74.9630691811 au (Hartrees)
                         -2039.84887704 eV
                           -196815.5078 kJ/mol
                            -47040.0353 kcal/mol


                   Scalar Breit-Pauli relativistic corrections
                   -------------------------------------------

     Darwin correction:                          0.1294130009 au
     Mass-velocity correction:                  -0.1668544580 au

     Total relativistic correction:             -0.0374414570 au ( 0.0499%)
     Non-relativistic + relativistic energy:   -75.0005106381 au



      (Note that these corrections are NOT included in the results below.)


                             Molecular gradient (au)
                             -----------------------

 O         -0.0000000000            0.0000000000           -0.0585041875
 H          0.0000000000           -0.0154261537            0.0292520937
 H          0.0000000000            0.0154261537            0.0292520937





                              Molecular Hessian (au)
                              ----------------------

           O    x      O    y      O    z      H    x      H    y      H    z

 O    x   -0.053421
 O    y   -0.000000    0.982382
 O    z    0.000000   -0.000000    0.637097

 H    x    0.026711    0.000000   -0.000000   -0.018666
 H    y    0.000000   -0.491191    0.262473   -0.000000    0.517060
 H    z   -0.000000    0.390539   -0.318549    0.000000   -0.326506    0.301212

 H    x    0.026711   -0.000000   -0.000000   -0.008044    0.000000    0.000000
 H    y    0.000000   -0.491191   -0.262473   -0.000000   -0.025869   -0.064033
 H    z   -0.000000   -0.390539   -0.318549    0.000000    0.064033    0.017337


           H    x      H    y      H    z

 H    x   -0.018666
 H    y    0.000000    0.517060
 H    z    0.000000    0.326506    0.301212





                                  Dipole moment
                                  -------------

                 au               Debye          C m (/(10**-30)
              0.672552           1.709457           5.702134


                             Dipole moment components
                             ------------------------

                 au               Debye          C m (/(10**-30)

      x     -0.00000000        -0.00000000        -0.00000000
      y     -0.00000000        -0.00000000        -0.00000000
      z     -0.67255203        -1.70945664        -5.70213357


   Units:   1 a.u. =   2.54175 Debye 
            1 a.u. =   8.47835 (10**-30) C m (SI)




                           Dipole moment gradient (au)
                           ---------------------------

                       Ex             Ey             Ez

        O    x    -0.61411794    -0.00000000     0.00000000
        O    y     0.00000000    -0.05509971    -0.00000000
        O    z     0.00000000    -0.00000000     0.03187841

        H    x     0.30705897     0.00000000    -0.00000000
        H    y    -0.00000000     0.02754985     0.15560522
        H    z     0.00000000     0.21077182    -0.01593920

        H    x     0.30705897    -0.00000000    -0.00000000
        H    y     0.00000000     0.02754985    -0.15560522
        H    z    -0.00000000    -0.21077182    -0.01593920





                            +-------------------------+
                            ! APT Population Analysis !
                            +-------------------------+


      [ Reference : J. Cioslowski, J.Am.Chem.Soc. 111 (1989) 8333 ]

                            O        -0.212446
                            H         0.106223
                            H         0.106223



   Interatomic separations (in Angstrom):
   --------------------------------------

            O           H           H     
            ------      ------      ------
 O     :    0.000000
 H     :    0.962542    0.000000
 H     :    0.962542    1.537052    0.000000


  Max    interatomic separation is    1.5371 Angstrom (    2.9046 Bohr)
  between atoms    3 and    2, "H     " and "H     ".

  Min HX interatomic separation is    0.9625 Angstrom (    1.8189 Bohr)


  Bond distances (Angstrom):
  --------------------------

                  atom 1     atom 2       distance
                  ------     ------       --------
  bond distance:  H          O            0.962542
  bond distance:  H          O            0.962542


  Bond angles (degrees):
  ----------------------

                  atom 1     atom 2     atom 3         angle
                  ------     ------     ------         -----
  bond angle:     H          O          H            105.962




   ****************************************************************************
   *************** ABACUS - ROTATIONAL AND VIBRATIONAL ANALYSIS ***************
   ****************************************************************************


 Norm of (unprojected) molecular gradient (au) :     0.07490022

 WARNING: Vibrational analysis performed at a non-equilibrium geometry,
 better results may be obtained using .INTERN
 (this will correct Hessian for rotation coordinates).



 Conversion factors used:

    Hartree to (cm)-1      : 219474.62934
    a.m.u.  to a.u.        :   1822.88848
    Bohr    to Angstrom    :  0.529177211
    a.u.    to A**4amu-1   :   142.943572
    a.u.    to km (mol)-1  :      974.864


 Vibrational analysis for parent molecule only.
  Norm of projected gradient     0.074900


                         Isotopic Molecule No. 1
                         ======================= 


                                 Isotopic Masses
                                 ---------------

                           O          15.994915
                           H           1.007825
                           H           1.007825

                       Total mass:    18.010565 amu
                       Natural abundance:  99.730 %

 Center-of-mass coordinates (a.u.):    0.000000    0.000000    0.096467


 Principal moments of inertia (u*A**2) and principal axes
 --------------------------------------------------------

   IA       0.601202          0.000000    1.000000    0.000000
   IB       1.190508          0.000000    0.000000    1.000000
   IC       1.791710          1.000000    0.000000    0.000000


 Rotational constants
 --------------------

@    The molecule is planar.

               A                   B                   C

         840614.7396         424506.9021         282065.1764 MHz
           28.039890           14.160026            9.408682 cm-1


  Vibrational Frequencies and IR Intensities
  ------------------------------------------

  mode   irrep        frequency             IR intensity
  ============================================================
                  cm-1       hartrees     km/mol   (D/A)**2/amu
  ------------------------------------------------------------
   1      A      4706.59    0.021445     18.679   0.4421
   2      A      4417.21    0.020126     35.799   0.8472
   3      A      2031.82    0.009258     11.596   0.2744



  Normal Coordinates (bohrs*amu**(1/2)):
  --------------------------------------


                1  4707     2  4417     3  2032 
  ----------------------------------------------

    O      x    0.000000    0.000000    0.000000
    O      y   -0.068184    0.000000   -0.000000
    O      z   -0.000000   -0.048989   -0.067801

    H      x    0.000000    0.000000    0.000000
    H      y    0.541068   -0.570923    0.412511
    H      z   -0.408008    0.388743    0.538028

    H      x    0.000000    0.000000    0.000000
    H      y    0.541068    0.570923   -0.412511
    H      z    0.408008    0.388743    0.538028




  Dipole Gradient in Normal Coordinate Basis (D/(A*amu**(1/2)))
  -------------------------------------------------------------


  mode           dMA/dQi        dMB/dQi        dMC/dQi
  ----------------------------------------------------
   1           -0.000000      -0.664877      -0.000000
   2            0.000000       0.000000      -0.920444
   3           -0.000000       0.000000       0.523861



                              Total Molecular Energy
                              ----------------------

             electronic     vibrational           total    energy 

             -74.963069        0.025414      -74.937655    Hartrees
           -16452491.82         5577.81    -16446914.01    cm-1
             -196815.51           66.73      -196748.78    kJ/mol
              -47040.04           15.95       -47024.09    kcal/mol


                          Molecular Partition Functions
                          -----------------------------

 Qtran is evaluated per mol at 1 atm. pressure.
 Qrot does not include symmetry numbers.
 Qvib does not include zero point energies
 (i.e., energy scale has vibrational ground state as zero).


 Temp.(K)  Translational     Rotational    Vibrational      Total

    50.00     3.4600D+04           6.48         1.0000   2.241066D+05
   100.00     1.9573D+05          17.56         1.0000   3.437298D+06
   200.00     1.1072D+06          48.60         1.0000   5.380954D+07
   273.15     2.4136D+06          77.11         1.0000   1.861144D+08
   298.15     3.0043D+06          87.82         1.0001   2.638374D+08
   300.00     3.0511D+06          88.63         1.0001   2.704230D+08
   400.00     6.2633D+06         135.94         1.0007   8.520252D+08
   500.00     1.0942D+07         189.56         1.0029   2.080128D+09
   600.00     1.7260D+07         248.81         1.0078   4.327756D+09
   700.00     2.5375D+07         313.21         1.0158   8.072914D+09
   800.00     3.5431D+07         382.36         1.0272   1.391512D+10
   900.00     4.7562D+07         455.96         1.0419   2.259466D+10
  1000.00     6.1895D+07         533.76         1.0599   3.501499D+10
  1500.00     1.7056D+08         979.12         1.1963   1.997812D+11
  2000.00     3.5013D+08        1506.32         1.4060   7.415620D+11


                                +------------------+
                                ! Polarizabilities !
                                +------------------+


 Vibrational polarizabilities calculated acc. to Rinaldi et al.,
 Chem.Phys.Lett. 128 (1986) 177-181.


                        Vibrational Polarizabilities (au)
                        ---------------------------------

                         Ex          Ey          Ez

            Ex       0.000000    0.000000   -0.000000
            Ey       0.000000    0.022857   -0.000000
            Ez      -0.000000   -0.000000    0.125872



                   Vibrational Polarizabilities (angstroms**3)
                   -------------------------------------------

                         Ex          Ey          Ez

            Ex       0.000000    0.000000   -0.000000
            Ey       0.000000    0.003387   -0.000000
            Ez      -0.000000   -0.000000    0.018652



                   Vibrational Polarizabilities (angstroms**3)
                   -------------------------------------------

               (Along principal axes of moments of inertia)

                         EA          EB          EC

            EA       0.003387   -0.000000    0.000000
            EB      -0.000000    0.018652   -0.000000
            EC       0.000000   -0.000000    0.000000



 Vibrational mean polarization :    0.0186 cm**3 mol**-1


 CPU time statistics for ABACUS
 ------------------------------




  Total CPU  time used in ABACUS:   0.06 seconds
  Total wall time used in ABACUS:   0.06 seconds


                   .-------------------------------------------.
                   | End of Static Property Section (ABACUS) - |
                   `-------------------------------------------'

  Total CPU  time used in DALTON:   0.09 seconds
  Total wall time used in DALTON:   0.09 seconds

 
     Date and time (Linux)  : Sun Dec 24 15:51:33 2017
     Host name              : chim13-cptrx04.chimie.fundp.ac.be       
