CH3F + Cl- (reactives)                                                  
Freq      RHF                                                         6-31+G(d)           
Number of atoms                            I                6
Info1-9                                    I   N=           9
          38          34        1002           0           1         100
           6           1           2
Charge                                     I               -1
Multiplicity                               I                1
Number of electrons                        I               36
Number of alpha electrons                  I               18
Number of beta electrons                   I               18
Number of basis functions                  I               67
Number of independent functions            I               67
Number of point charges in /Mol/           I                0
Number of translation vectors              I                0
Atomic numbers                             I   N=           6
           9           6           1           1           1          17
Nuclear charges                            R   N=           6
  9.00000000E+00  6.00000000E+00  1.00000000E+00  1.00000000E+00  1.00000000E+00
  1.70000000E+01
Current cartesian coordinates              R   N=          18
 -4.92177993E+00  8.03843803E-04 -4.44552665E-07 -9.03543542E-01 -1.38385069E-03
  9.39925822E-07 -1.15910228E+00 -9.97003755E-01 -1.72396462E+00 -1.15910315E+00
 -9.97600364E-01  1.72362157E+00 -1.15800789E+00  1.98933761E+00  3.44997810E-04
  3.12902906E+00  3.72648333E-04 -2.10912561E-07
Force Field                                I                0
Int Atom Types                             I   N=           6
           0           0           0           0           0           0
MM charges                                 R   N=           6
  0.00000000E+00  0.00000000E+00  0.00000000E+00  0.00000000E+00  0.00000000E+00
  0.00000000E+00
Integer atomic weights                     I   N=           6
          19          12           1           1           1          35
Real atomic weights                        R   N=           6
  1.89984032E+01  1.20000000E+01  1.00782504E+00  1.00782504E+00  1.00782504E+00
  3.49688527E+01
Atom fragment info                         I   N=           6
           0           0           0           0           0           0
Atom residue num                           I   N=           6
           0           0           0           0           0           0
Nuclear spins                              I   N=           6
           1           0           1           1           1           3
Nuclear ZEff                               R   N=           6
 -6.75000000E+00 -3.60000000E+00 -1.00000000E+00 -1.00000000E+00 -1.00000000E+00
 -1.42400000E+01
Nuclear ZNuc                               R   N=           6
  9.00000000E+00  6.00000000E+00  1.00000000E+00  1.00000000E+00  1.00000000E+00
  1.70000000E+01
Nuclear QMom                               R   N=           6
  0.00000000E+00  0.00000000E+00  0.00000000E+00  0.00000000E+00  0.00000000E+00
 -8.16500000E+00
Nuclear GFac                               R   N=           6
  2.62886700E+00  0.00000000E+00  2.79284600E+00  2.79284600E+00  2.79284600E+00
  8.21874000E-01
MicOpt                                     I   N=           6
          -1          -1          -1          -1          -1          -1
Number of contracted shells                I               22
Number of primitive shells                 I               54
Pure/Cartesian d shells                    I                1
Pure/Cartesian f shells                    I                0
Highest angular momentum                   I                2
Largest degree of contraction              I                6
Shell types                                I   N=          22
           0          -1          -1          -1           2           0
          -1          -1          -1           2           0           0
           0           0           0           0           0          -1
          -1          -1          -1           2
Number of primitives per shell             I   N=          22
           6           3           1           1           1           6
           3           1           1           1           3           1
           3           1           3           1           6           6
           3           1           1           1
Shell to atom map                          I   N=          22
           1           1           1           1           1           2
           2           2           2           2           3           3
           4           4           5           5           6           6
           6           6           6           6
Primitive exponents                        R   N=          54
  7.00171309E+03  1.05136609E+03  2.39285690E+02  6.73974453E+01  2.15199573E+01
  7.40310130E+00  2.08479528E+01  4.80830834E+00  1.34406986E+00  3.58151393E-01
  1.07600000E-01  8.00000000E-01  3.04752488E+03  4.57369518E+02  1.03948685E+02
  2.92101553E+01  9.28666296E+00  3.16392696E+00  7.86827235E+00  1.88128854E+00
  5.44249258E-01  1.68714478E-01  4.38000000E-02  8.00000000E-01  1.87311370E+01
  2.82539436E+00  6.40121692E-01  1.61277759E-01  1.87311370E+01  2.82539436E+00
  6.40121692E-01  1.61277759E-01  1.87311370E+01  2.82539436E+00  6.40121692E-01
  1.61277759E-01  2.51801000E+04  3.78035000E+03  8.60474000E+02  2.42145000E+02
  7.73349000E+01  2.62470000E+01  4.91765000E+02  1.16984000E+02  3.74153000E+01
  1.37834000E+01  5.45215000E+00  2.22588000E+00  3.18649000E+00  1.14427000E+00
  4.20377000E-01  1.42657000E-01  4.83000000E-02  7.50000000E-01
Contraction coefficients                   R   N=          54
  1.81961690E-03  1.39160796E-02  6.84053245E-02  2.33185760E-01  4.71267439E-01
  3.56618546E-01 -1.08506975E-01 -1.46451658E-01  1.12868858E+00  1.00000000E+00
  1.00000000E+00  1.00000000E+00  1.83473713E-03  1.40373228E-02  6.88426223E-02
  2.32184443E-01  4.67941348E-01  3.62311985E-01 -1.19332420E-01 -1.60854152E-01
  1.14345644E+00  1.00000000E+00  1.00000000E+00  1.00000000E+00  3.34946043E-02
  2.34726953E-01  8.13757326E-01  1.00000000E+00  3.34946043E-02  2.34726953E-01
  8.13757326E-01  1.00000000E+00  3.34946043E-02  2.34726953E-01  8.13757326E-01
  1.00000000E+00  1.83295985E-03  1.40341988E-02  6.90973943E-02  2.37451980E-01
  4.83033960E-01  3.39855972E-01 -2.29739142E-03 -3.07137189E-02 -1.12528069E-01
  4.50163278E-02  5.89353363E-01  4.65206287E-01 -2.51828028E-01  6.15892514E-02
  1.06018433E+00  1.00000000E+00  1.00000000E+00  1.00000000E+00
P(S=P) Contraction coefficients            R   N=          54
  0.00000000E+00  0.00000000E+00  0.00000000E+00  0.00000000E+00  0.00000000E+00
  0.00000000E+00  7.16287242E-02  3.45912103E-01  7.22469956E-01  1.00000000E+00
  1.00000000E+00  0.00000000E+00  0.00000000E+00  0.00000000E+00  0.00000000E+00
  0.00000000E+00  0.00000000E+00  0.00000000E+00  6.89990666E-02  3.16423961E-01
  7.44308291E-01  1.00000000E+00  1.00000000E+00  0.00000000E+00  0.00000000E+00
  0.00000000E+00  0.00000000E+00  0.00000000E+00  0.00000000E+00  0.00000000E+00
  0.00000000E+00  0.00000000E+00  0.00000000E+00  0.00000000E+00  0.00000000E+00
  0.00000000E+00  0.00000000E+00  0.00000000E+00  0.00000000E+00  0.00000000E+00
  0.00000000E+00  0.00000000E+00  3.98940088E-03  3.03177067E-02  1.29880029E-01
  3.27951072E-01  4.53527100E-01  2.52154056E-01 -1.42993147E-02  3.23572333E-01
  7.43507765E-01  1.00000000E+00  1.00000000E+00  0.00000000E+00
Coordinates of each shell                  R   N=          66
 -4.92177993E+00  8.03843803E-04 -4.44552665E-07 -4.92177993E+00  8.03843803E-04
 -4.44552665E-07 -4.92177993E+00  8.03843803E-04 -4.44552665E-07 -4.92177993E+00
  8.03843803E-04 -4.44552665E-07 -4.92177993E+00  8.03843803E-04 -4.44552665E-07
 -9.03543542E-01 -1.38385069E-03  9.39925822E-07 -9.03543542E-01 -1.38385069E-03
  9.39925822E-07 -9.03543542E-01 -1.38385069E-03  9.39925822E-07 -9.03543542E-01
 -1.38385069E-03  9.39925822E-07 -9.03543542E-01 -1.38385069E-03  9.39925822E-07
 -1.15910228E+00 -9.97003755E-01 -1.72396462E+00 -1.15910228E+00 -9.97003755E-01
 -1.72396462E+00 -1.15910315E+00 -9.97600364E-01  1.72362157E+00 -1.15910315E+00
 -9.97600364E-01  1.72362157E+00 -1.15800789E+00  1.98933761E+00  3.44997810E-04
 -1.15800789E+00  1.98933761E+00  3.44997810E-04  3.12902906E+00  3.72648333E-04
 -2.10912561E-07  3.12902906E+00  3.72648333E-04 -2.10912561E-07  3.12902906E+00
  3.72648333E-04 -2.10912561E-07  3.12902906E+00  3.72648333E-04 -2.10912561E-07
  3.12902906E+00  3.72648333E-04 -2.10912561E-07  3.12902906E+00  3.72648333E-04
 -2.10912561E-07
Constraint Structure                       R   N=          18
 -4.92177993E+00  8.03843803E-04 -4.44552665E-07 -9.03543542E-01 -1.38385069E-03
  9.39925822E-07 -1.15910228E+00 -9.97003755E-01 -1.72396462E+00 -1.15910315E+00
 -9.97600364E-01  1.72362157E+00 -1.15800789E+00  1.98933761E+00  3.44997810E-04
  3.12902906E+00  3.72648333E-04 -2.10912561E-07
Num ILSW                                   I              100
ILSW                                       I   N=         100
           0           1           0           1           2           0
           0           0           0           0           0          -1
           0           0           0           0           2           0
           0           0           0           0           1           0
           1           0           0           0           0           0
           0           0      100000           0          -1           0
           0           0           0           0           0           0
           0           0           0           1           0           0
           0           0           1           0           0           0
           0           0           4          41           0           0
           0           0           0           0           0           0
           0           0           0           6           0           0
           0           0           0           0           0           0
           0           0           0           0           0           0
           0           0           0           0           0           0
           0           0           0           0           0           0
           0           0           0           0
Num RLSW                                   I               41
RLSW                                       R   N=          41
  1.00000000E+00  1.00000000E+00  1.00000000E+00  1.00000000E+00  1.00000000E+00
  0.00000000E+00  0.00000000E+00  1.00000000E+00  0.00000000E+00  0.00000000E+00
  0.00000000E+00  0.00000000E+00  1.00000000E+00  0.00000000E+00  0.00000000E+00
  0.00000000E+00  0.00000000E+00  1.00000000E+00  0.00000000E+00  0.00000000E+00
  0.00000000E+00  0.00000000E+00  1.00000000E+00  0.00000000E+00  0.00000000E+00
  0.00000000E+00  0.00000000E+00  1.00000000E+00  0.00000000E+00  0.00000000E+00
  0.00000000E+00  0.00000000E+00  1.00000000E+00  0.00000000E+00  0.00000000E+00
  0.00000000E+00  0.00000000E+00  0.00000000E+00  1.00000000E+00  1.00000000E+00
  0.00000000E+00
MxBond                                     I                5
NBond                                      I   N=           6
           4           5           3           3           3           4
IBond                                      I   N=          30
           2           3           4           5           0           1
           3           4           5           6           1           2
           6           0           0           1           2           6
           0           0           1           2           6           0
           0           2           3           4           5           0
RBond                                      R   N=          30
  7.00000000E-01  3.33333333E-02  3.33333333E-02  3.33333333E-02  0.00000000E+00
  7.00000000E-01  1.00000000E+00  1.00000000E+00  1.00000000E+00  1.33333333E+00
  3.33333333E-02  1.00000000E+00  3.33333333E-02  0.00000000E+00  0.00000000E+00
  3.33333333E-02  1.00000000E+00  3.33333333E-02  0.00000000E+00  0.00000000E+00
  3.33333333E-02  1.00000000E+00  3.33333333E-02  0.00000000E+00  0.00000000E+00
  1.33333333E+00  3.33333333E-02  3.33333333E-02  3.33333333E-02  0.00000000E+00
Virial Ratio                               R      2.000913257766396E+00
SCF Energy                                 R     -5.985311034426363E+02
Total Energy                               R     -5.985311034426363E+02
RMS Force                                  R      8.892641522108533E-05
RMS Density                                R      5.869066320169609E-10
External E-field                           R   N=          35
  0.00000000E+00  0.00000000E+00  0.00000000E+00  0.00000000E+00  0.00000000E+00
  0.00000000E+00  0.00000000E+00  0.00000000E+00  0.00000000E+00  0.00000000E+00
  0.00000000E+00  0.00000000E+00  0.00000000E+00  0.00000000E+00  0.00000000E+00
  0.00000000E+00  0.00000000E+00  0.00000000E+00  0.00000000E+00  0.00000000E+00
  0.00000000E+00  0.00000000E+00  0.00000000E+00  0.00000000E+00  0.00000000E+00
  0.00000000E+00  0.00000000E+00  0.00000000E+00  0.00000000E+00  0.00000000E+00
  0.00000000E+00  0.00000000E+00  0.00000000E+00  0.00000000E+00  0.00000000E+00
IOpCl                                      I                0
IROHF                                      I                0
Alpha Orbital Energies                     R   N=          67
 -1.04606835E+02 -2.59283282E+01 -1.11530637E+01 -1.03394989E+01 -7.80802650E+00
 -7.80636139E+00 -7.80636131E+00 -1.16747575E+00 -8.86796074E-01 -7.63008222E-01
 -4.66768008E-01 -4.66618698E-01 -3.19042924E-01 -2.67740313E-01 -2.67737498E-01
 -2.51835838E-01 -2.51834856E-01 -2.31740180E-01  2.25227572E-01  2.43236023E-01
  2.59077334E-01  2.59099494E-01  2.99239998E-01  2.99244903E-01  3.10338215E-01
  3.56068168E-01  3.81435208E-01  4.89687136E-01  4.89798578E-01  5.46528978E-01
  5.87315063E-01  5.87320332E-01  6.03407858E-01  7.33755260E-01  9.46706865E-01
  9.46743273E-01  9.59443997E-01  1.01617903E+00  1.01622461E+00  1.07419511E+00
  1.24159880E+00  1.33993285E+00  1.34000082E+00  1.38395900E+00  1.38403356E+00
  1.38415281E+00  1.40624333E+00  1.40649272E+00  1.52132033E+00  1.77179663E+00
  2.08565171E+00  2.08568736E+00  2.17268964E+00  2.17270799E+00  2.23469837E+00
  2.42741149E+00  2.47686185E+00  2.47691828E+00  2.48547392E+00  2.48547412E+00
  2.61337743E+00  2.78537972E+00  2.78562852E+00  2.82760979E+00  4.78572787E+00
  4.94872408E+00  5.74723559E+00
Alpha MO coefficients                      R   N=        4489
  7.68453054E-06  4.00563674E-05  1.78607774E-06 -6.28321308E-09  3.83737758E-12
 -1.41074572E-04 -6.54612320E-06  2.34347133E-08 -1.41412962E-11  8.50828381E-05
  8.92900657E-06 -5.02317857E-08  3.15937784E-11  3.01590228E-05  3.08000098E-05
  3.07988704E-05  9.09234594E-10 -5.63902835E-13  5.92363411E-13 -1.24361926E-06
 -5.73123792E-05  2.27351995E-05  1.71481744E-08 -6.41035192E-12  5.13444854E-06
 -1.66955342E-05  1.16828864E-08 -4.32067926E-11  4.97965005E-04  2.44718467E-04
  6.86832615E-08 -5.67796560E-11  7.39648267E-05  5.70300424E-06  5.66921284E-06
  3.49159906E-08 -2.16207278E-11  2.12904333E-11  3.11944561E-08 -4.56783802E-05
  3.12500187E-08 -4.56783565E-05 -2.64172148E-08 -4.56632355E-05  9.96115159E-01
  1.46223716E-02 -2.25220524E-05 -2.30707333E-08  1.43851924E-11 -1.77855265E-02
  1.57411249E-05  1.01217165E-08 -6.74765183E-12  1.92838012E-03 -1.87398599E-05
 -7.76600427E-09  8.47696744E-12 -8.43560537E-04  2.10965996E-04  1.12303210E-07
 -7.11143583E-11  6.21216996E-03  6.21449858E-03  6.21449720E-03 -1.26080545E-10
 -1.01236654E-12  6.70029341E-13  9.94198507E-01  1.62388306E-02  9.68720831E-05
 -9.70473922E-08  5.70270406E-11  1.28148632E-02  1.59715285E-05 -3.51598096E-08
  2.34529132E-11 -1.98587913E-03 -1.52803099E-04  2.15330055E-07 -1.37868512E-10
 -5.70363520E-03 -5.68649217E-03 -5.68649062E-03  2.92473821E-08 -1.98069461E-11
  5.65696177E-13 -2.22227490E-06  5.88496068E-05  4.28630780E-05 -2.02367610E-08
  9.94847415E-12  9.66007832E-05 -2.42477902E-05 -8.38580768E-09  3.47260209E-11
 -5.78904017E-04 -9.55210345E-04  7.80497234E-08 -3.87624038E-11 -1.06864722E-04
 -2.82706273E-05 -2.82612123E-05  5.40137584E-08 -3.59766395E-11 -2.64572633E-12
  5.54700982E-06  2.34838950E-05  5.54700883E-06  2.34838746E-05  5.54253541E-06
  2.34748494E-05  4.62855702E-07  4.13310872E-06  7.40890467E-08  8.24368295E-10
 -5.84998777E-13  1.43704774E-05  2.73307763E-06 -1.90752920E-09  1.72913645E-12
 -1.15106529E-04 -1.98063659E-05 -9.27594732E-11 -3.48772320E-12  1.13695570E-03
 -3.47795210E-04 -3.85221965E-07  2.48736370E-10  8.74222835E-06  8.04094624E-06
  8.04184171E-06  1.16611333E-08 -6.40681082E-12 -5.55291205E-13 -9.00723829E-06
 -7.79049582E-05 -9.58996125E-07  1.71819550E-08  3.79742919E-12  1.87460059E-04
  4.90369813E-04 -4.04417671E-07  1.90430653E-10  9.43193375E-04  1.65126930E-04
  5.77715565E-08  9.37106981E-12  1.67945056E-04 -5.94682542E-05 -5.94132818E-05
 -1.36951726E-07  8.12769750E-11 -2.33133593E-11  9.96008655E-01  2.72198716E-02
  5.46624668E-04 -7.87855949E-07  1.75309775E-10 -1.50360166E-02 -3.11745592E-04
  1.28002882E-06  1.75498622E-09 -5.53606152E-04  6.66455506E-04  3.85358981E-07
  5.01134709E-10 -2.24607827E-03 -1.13667956E-03 -1.13715404E-03  1.80524008E-07
 -1.70933265E-10 -1.65289400E-10  1.45768206E-06  3.38826257E-03  1.45691686E-06
  3.38826185E-03  1.63338009E-06  3.38643491E-03 -1.62211954E-05 -2.79246763E-05
  7.15138381E-05  1.11907513E-08 -1.04117651E-11 -3.79474798E-04 -3.25652599E-04
  1.46652073E-08  2.09046280E-11  1.87824410E-03 -1.27868904E-03 -1.37577052E-06
  6.23300796E-10 -7.53513628E-04  4.85893055E-04  2.21361756E-07 -2.77867981E-10
  3.42511877E-04 -9.23806240E-05 -9.22760892E-05  4.30024452E-07 -1.96595061E-10
 -5.53692723E-11 -7.61718951E-05 -4.07625142E-04 -7.63763147E-06  8.25954840E-08
 -5.30351053E-11  1.40463489E-03  8.15690118E-05 -3.90165331E-07  2.48074760E-10
 -7.07113379E-04  4.21491056E-04  6.77594208E-07 -4.34400994E-10 -2.38717268E-04
 -3.19102596E-04 -3.19092098E-04 -8.08498505E-08  5.34713150E-11 -4.49687494E-12
 -7.75312145E-05 -8.17035233E-05  1.93152851E-05  3.21259677E-08 -5.05322044E-11
  6.27250636E-04  1.27309210E-03  8.74530576E-08  1.82104400E-10 -1.04739511E-02
 -5.13376002E-03 -2.04786824E-06  1.45347302E-09  4.80427526E-06  6.97995165E-06
  7.03354765E-06  8.44641781E-08 -5.92672942E-11 -7.42610848E-11 -1.40736878E-04
  4.71679065E-04 -1.40737063E-04  4.71678874E-04 -1.40582532E-04  4.71635254E-04
 -2.86712349E-01  1.03087941E+00 -1.87863529E-03 -1.99187978E-06  1.22704524E-09
  2.71381670E-02 -6.12524467E-04 -4.10080926E-07  2.59911937E-10 -1.26608197E-02
  1.45904189E-03  7.46314518E-07 -5.02219860E-10  1.44366943E-02 -5.01253001E-03
 -2.34425515E-06  1.50602259E-09 -1.09091644E-03 -1.10760678E-03 -1.10760005E-03
  4.72890610E-08 -2.28571233E-11 -7.92121792E-12  2.30867966E-05  1.24756247E-04
  4.64702838E-05  1.07706189E-08 -8.61424569E-12 -4.17157253E-04 -2.39583317E-04
 -7.20141595E-08  5.61618804E-11 -2.26312723E-04  4.61384031E-04  4.29409787E-07
 -2.85495504E-10  9.47280097E-05  8.57728272E-05  8.57466465E-05  2.72096748E-08
 -1.83718635E-11  1.45284477E-11 -5.30050172E-05 -5.64494993E-04 -1.65153042E-04
  2.67425809E-08  3.89363541E-11  5.29916619E-04 -3.23307315E-04  5.71989011E-07
 -8.03673629E-10  1.34623497E-03 -7.25818911E-04 -6.12634271E-07  2.35890141E-10
  3.32446110E-04 -2.07536064E-04 -2.08043868E-04  2.89707098E-07 -1.76984114E-10
  3.36959137E-10  5.25023969E-05 -6.85877667E-04  5.25032324E-05 -6.85876576E-04
  5.16400840E-05 -6.86591283E-04 -6.32496949E-04  2.30907389E-03  9.93021951E-01
  6.14275802E-04 -3.96817968E-07 -1.35205565E-03  2.24761242E-02  1.40367469E-05
 -9.06235085E-09  8.55758298E-04 -7.80778449E-03 -4.77444763E-06  3.12259804E-09
 -2.58242840E-04  2.95214598E-03  1.95612242E-06 -1.22753466E-09  3.82627708E-05
  3.32062657E-04  3.32041623E-04 -2.29486749E-07  1.32729404E-10  1.52276619E-11
 -8.21710771E-09 -5.49030777E-08  3.33977577E-09  1.09208045E-05 -8.69333393E-10
  2.61758911E-07  3.79961385E-08 -4.28857945E-05  3.41404739E-09 -2.28366512E-07
 -6.26763586E-07  7.79464331E-05 -6.18366965E-09 -1.06242322E-07 -1.37542594E-06
  1.40600287E-06 -2.10544304E-05  1.66924092E-09 -9.62238675E-10  7.62610612E-08
  4.03209754E-07  1.70331190E-07 -1.21795991E-05  9.85892992E-10 -2.04855427E-06
 -7.67859330E-07  3.85708578E-04 -3.10142703E-08 -5.85153784E-07  4.72927848E-07
 -7.87962947E-04  6.22619712E-08  3.85599647E-08  1.41317249E-05 -1.39256631E-05
  7.80762752E-05 -6.14023421E-09  9.76580872E-09  3.44555667E-05 -7.07172081E-05
  3.44859220E-05 -7.07790889E-05 -6.86985313E-05  1.44486127E-04 -2.49783900E-07
  9.04444738E-07 -6.14584943E-04  9.93357033E-01 -7.85314520E-05 -5.08203344E-07
 -1.30035406E-05  2.13049506E-02 -1.68433658E-06  7.13147901E-07  3.63420328E-06
 -6.78813568E-03  5.36716150E-07 -2.19135559E-07 -1.34411657E-06  2.77267321E-03
 -2.19230644E-07  4.08890445E-07 -3.24540844E-07  3.30556913E-07 -1.43552988E-04
  1.13297578E-08 -6.82404658E-11  5.42602896E-12  3.57371437E-11 -1.92135709E-12
  8.58100638E-10  1.09298308E-05 -1.67235842E-10 -2.28356863E-11 -3.36962062E-09
 -4.29221839E-05  1.46929340E-10  3.62691324E-10  6.14313864E-09  7.79774590E-05
  6.32497971E-11 -8.37558821E-10  8.25369519E-10 -1.66029120E-09 -2.10613244E-05
  1.60847496E-06 -4.39160210E-11 -2.21342835E-10 -9.55025173E-11 -9.44434051E-10
 -1.22390887E-05  1.21022662E-09  4.35001086E-10  3.00432846E-08  3.86633721E-04
  4.63434127E-10 -2.17171301E-10 -6.23185749E-08 -7.87869551E-04 -2.64007367E-11
  8.32793347E-09 -8.45995553E-09  6.20089991E-09  7.80280033E-05 -1.63371062E-05
  5.98192664E-05 -1.23586498E-04 -5.98020946E-05  1.23548856E-04 -1.72416607E-08
  3.57870136E-08  1.23211628E-10 -4.44873820E-10  3.48424602E-07  7.85317027E-05
  9.93357216E-01  2.58964241E-10  7.38375182E-09  1.68426604E-06  2.13049846E-02
 -3.93225620E-10 -2.06302696E-09 -5.36587030E-07 -6.78823099E-03  1.85062052E-11
  7.98614981E-10  2.19169066E-07  2.77270603E-03 -2.20912963E-10 -2.00219151E-10
  2.10883072E-10 -1.13653731E-08 -1.43520442E-04  1.32764058E-07 -2.29843658E-01
  5.36161951E-01  9.26158159E-03 -5.21914859E-06  2.80077584E-09  4.58952899E-01
  1.31477128E-02 -8.67039837E-06  4.92964369E-09  4.39337079E-02 -3.03569430E-03
  1.64085965E-06 -1.29926330E-09  3.03501232E-02  2.63784819E-02  2.63779934E-02
 -2.91371174E-06  1.71589424E-09  9.10738693E-11 -1.36512445E-02  2.41897312E-02
 -1.36210451E-02  8.32586193E-06 -5.85013901E-09  2.46523499E-02 -9.80914343E-03
 -4.07652263E-07 -2.34384227E-09  2.06778600E-03 -1.16440008E-03  2.10514964E-07
 -5.32513222E-10  1.95744887E-03  1.98523306E-04  1.96593468E-04 -1.20149533E-06
  1.04467215E-09  7.57014809E-11  8.73927878E-03 -1.01268512E-03  8.73927537E-03
 -1.01268546E-03  8.74444255E-03 -1.01020896E-03  3.72713427E-04 -1.89220790E-03
  6.41912925E-04  1.59410359E-07 -8.44919068E-11  2.63688581E-03 -1.39480409E-03
 -2.50175946E-07  8.87769329E-11  4.32114250E-03 -2.34216681E-03 -1.41368925E-06
  1.21317807E-09 -8.24487175E-04  1.04302427E-03 -4.32774843E-08  5.53377088E-11
  4.84506498E-04 -3.24886703E-04 -3.24946543E-04  3.22970576E-07 -2.52900358E-10
  2.83230877E-11  1.21551006E-02 -2.69734852E-02  1.41170049E-02 -7.67662700E-06
  4.31383186E-09 -3.31633058E-02  7.40829756E-03 -2.19408196E-06  1.35102078E-09
  2.03206914E-03  4.20524798E-03 -7.46374677E-06  5.05200457E-09  6.15815775E-04
 -1.04294602E-03 -1.04327880E-03 -1.10139213E-06  7.39463740E-10  1.66581972E-10
 -1.01437131E-01  1.90954884E-01  3.24262352E-02  2.56381166E-05 -2.18738326E-08
  2.00161709E-01  3.42692865E-02 -1.84187197E-06 -1.84713063E-08  3.96736389E-02
  1.47639820E-02  3.11497722E-06 -5.96971518E-09  1.46198939E-05  5.59588760E-03
  5.57440735E-03  1.49119372E-05 -8.26124624E-09  4.15976963E-09  6.77902952E-02
  8.92537938E-04  6.77902823E-02  8.92552093E-04  6.78215630E-02  8.96225317E-04
  6.78269499E-02 -3.13018300E-01  2.31482831E-02  8.59482565E-06 -5.36722446E-09
  5.96920280E-01 -5.37144060E-02 -2.00343017E-05  1.24418498E-08  2.96375136E-01
 -8.96468596E-03  3.03390817E-06 -5.89317571E-10 -3.81499561E-02  1.64329662E-02
  7.76030028E-06 -4.57608503E-09  1.39108273E-02 -3.80090958E-03 -3.80243964E-03
  8.58808023E-06 -5.79654366E-09  5.70003484E-10 -2.13963274E-02  4.84063129E-02
 -4.56606452E-02  2.79953852E-05 -1.58219661E-08  5.75767297E-02 -2.21627756E-02
  1.23703457E-05 -7.21414945E-09  2.01002599E-02  1.60992357E-03 -2.28398627E-07
  9.07939610E-11 -4.49211536E-04  1.67083432E-03  1.67117742E-03  1.18110624E-06
 -7.48045588E-10 -1.45188574E-10  1.69980710E-01 -3.43600696E-01  4.20258708E-02
  5.28627674E-05 -1.41688535E-08 -3.34434730E-01 -4.96676242E-03  3.51311517E-05
  4.35098515E-09 -1.25194871E-02  2.15999584E-03 -1.45790071E-08  1.89317969E-09
  2.40547286E-02 -1.72420020E-02 -1.72165981E-02 -1.71125404E-05  7.90737350E-09
  1.97277489E-09 -1.34125304E-01 -3.29272631E-02 -1.34125355E-01 -3.29272892E-02
 -1.34097267E-01 -3.29211287E-02  4.38181928E-02 -2.03195770E-01 -2.72420904E-02
 -1.28103982E-05  7.52405427E-09  3.93122922E-01  6.47204726E-02  3.28446666E-05
 -1.92088901E-08  2.39582517E-01  1.42131340E-03 -8.72928750E-06  3.93352961E-09
  1.48737466E-03  5.62862123E-03  5.03465393E-06 -2.97162814E-09 -6.67657850E-03
  2.19898920E-03  2.19904781E-03 -3.68720975E-06  2.36615711E-09 -5.21665560E-11
  4.19063723E-06 -1.53333354E-05  6.39246281E-05  5.78683132E-02 -1.40093896E-06
 -4.53927119E-06  4.54508371E-05  3.70163671E-02 -8.96372436E-07 -6.17454037E-06
  4.29373235E-06 -5.84842671E-04  1.65709451E-08  1.55504811E-06  1.51602555E-04
 -1.60385819E-04  1.26858228E-03 -3.01569344E-08  9.87160047E-08 -1.73562934E-05
  5.29578625E-05  1.71932136E-04  4.67447624E-01 -1.13709028E-05  4.46323309E-06
  8.80953288E-05  2.10498253E-01 -5.10001595E-06 -3.06991819E-05 -1.43465443E-05
  9.88363923E-03 -2.38833575E-07  8.23256823E-06  2.89985482E-02 -2.90085451E-02
 -3.30736623E-03  9.30935252E-08  1.81993075E-05 -1.35610112E-01 -8.28073095E-02
 -1.35702847E-01 -8.28639840E-02  2.71250132E-01  1.65644522E-01 -1.69567541E-05
  7.60641200E-05  1.19483520E-04 -3.67056777E-02  8.81776660E-07 -1.70596092E-04
 -2.92944831E-04  9.12484318E-02 -2.19314503E-06 -1.00240009E-04 -1.30879770E-04
  3.99951577E-02 -9.55931174E-07 -1.16030385E-05  8.68676467E-06  1.96778124E-03
 -4.98932380E-08  3.42751231E-05  4.90144335E-04 -5.19821944E-04 -1.00793562E-02
  2.41141881E-07  3.21573809E-07 -3.49487950E-09  7.30556056E-09 -4.11358335E-08
  1.41607616E-06  5.79090882E-02  1.26305662E-08 -2.31270195E-08  9.05650073E-07
  3.70457142E-02  1.41484878E-08  7.18966599E-10 -1.18123370E-08 -5.81763906E-04
 -1.47926586E-09  8.48336899E-08 -8.46299737E-08  3.15562426E-08  1.26784415E-03
 -1.81639733E-04 -7.19934303E-09  2.96749685E-08 -8.74068374E-08  1.13753443E-05
  4.67412454E-01 -4.01287913E-08 -3.51767639E-08  5.14294648E-06  2.10481591E-01
 -3.14799505E-08 -4.02197833E-09  2.42201341E-07  9.88662095E-03 -1.40182718E-09
  1.57674683E-05 -1.57690377E-05 -6.82995746E-08 -3.32607804E-03 -3.35172343E-02
 -2.34951797E-01 -1.43612649E-01  2.34898279E-01  1.43580001E-01  5.35182589E-05
  3.27055678E-05  8.68265335E-09 -3.94319248E-08 -6.21684677E-08 -9.04722720E-07
 -3.67180758E-02  8.59051299E-08  1.52485056E-07  2.24809885E-06  9.12832235E-02
  5.96250076E-08  6.02363320E-08  9.90751109E-07  4.00122127E-02  3.15846208E-08
 -9.59800356E-09  4.60484520E-08  1.97562976E-03 -1.72374220E-08  2.81595530E-07
 -2.66973698E-07 -2.49259053E-07 -1.00759110E-02 -5.91687128E-04  1.13600528E-02
 -2.98441331E-02  3.66423504E-01 -1.25773176E-04  7.99521420E-08 -2.93017427E-02
  2.48175075E-01 -8.56413400E-05  5.49201314E-08 -4.01404913E-02  5.44770918E-02
 -1.61782046E-05  7.18931615E-09  4.22635917E-03 -3.19016476E-03 -3.19029272E-03
 -4.68076947E-06  2.74454934E-09  1.20620387E-12  5.74637032E-04  2.02926667E-02
 -2.05983679E-01  1.63970117E-04 -8.21473759E-08 -4.54620946E-02 -1.81235730E-01
  8.92163356E-05 -3.81512918E-08 -1.16332885E-02 -1.57049041E-02  1.82129267E-05
 -5.83622730E-09 -1.58788156E-02  6.17413547E-03  6.15773161E-03 -9.26603827E-06
  7.38121415E-09  7.29712064E-09  2.52036898E-02  2.94036451E-02  2.52036122E-02
  2.94035593E-02  2.53150877E-02  2.95112500E-02  7.44797034E-03 -3.41518163E-02
 -1.83528170E-01 -1.51473143E-04  9.07408591E-08  7.88592297E-02  4.65705568E-01
  3.83658448E-04 -2.29985159E-07  6.27508217E-02  2.26156709E-01  1.94068055E-04
 -1.14774190E-07  4.30050239E-02  1.22821833E-02  1.14359119E-05 -7.35740492E-09
 -2.93563976E-02  8.80056456E-03  8.79901208E-03 -3.44517250E-05  2.13083888E-08
  9.54768703E-10 -1.00635119E-06  1.13895827E-05  3.40070406E-04  5.75400169E-01
  2.39071061E-04 -1.86355016E-05  2.38907576E-04  3.99755948E-01  1.66093103E-04
  5.75586143E-05  8.83842635E-05  1.39638702E-01  5.80166812E-05  9.63869732E-06
 -1.84625378E-06  2.66224511E-06  5.40752064E-03  2.24661826E-06  7.07292778E-10
 -3.47477353E-06 -1.80627352E-06  1.18068233E-05 -2.77389012E-02 -1.15262821E-05
  5.24572184E-05  4.26860716E-05 -1.92760065E-02 -8.00624385E-06  1.93397294E-04
  1.48761157E-04  7.05186581E-03  2.93163965E-06 -2.59421152E-06 -2.02434465E-03
  2.02462193E-03 -8.32392058E-03 -3.45881115E-06 -2.41738109E-07  5.37873968E-03
  1.82044795E-03  5.37422160E-03  1.81888674E-03 -1.07551712E-02 -3.71530457E-03
 -3.48113357E-07  2.62641264E-06 -5.52083946E-05  1.08377247E-01  4.50407713E-05
 -1.49898873E-06  1.40155854E-04 -2.77430054E-01 -1.15297926E-04 -1.52623259E-05
  1.16013479E-04 -1.64530597E-01 -6.83777113E-05 -2.16218750E-04  7.81394586E-05
 -2.87419140E-02 -1.19448074E-05 -1.55255962E-06  1.50241081E-05 -1.09283597E-05
  3.72727376E-03  1.54884717E-06  1.02701015E-09  9.48190057E-10 -1.14397975E-08