no-field                                                                
Freq      RHF                                                         Gen                 
Number of atoms                            I                5
Info1-9                                    I   N=           9
          66          66           0           0           0         101
           6           1           2
Charge                                     I                0
Multiplicity                               I                1
Number of electrons                        I               10
Number of alpha electrons                  I                5
Number of beta electrons                   I                5
Number of basis functions                  I               60
Number of independent functions            I               60
Number of point charges in /Mol/           I                0
Number of translation vectors              I                0
Atomic numbers                             I   N=           5
           6           1           1           1           1
Nuclear charges                            R   N=           5
  6.00000000E+00  1.00000000E+00  1.00000000E+00  1.00000000E+00  1.00000000E+00
Current cartesian coordinates              R   N=          15
  0.00000000E+00  0.00000000E+00  0.00000000E+00 -1.18926055E+00  1.18926055E+00
 -1.18926055E+00 -1.18926055E+00 -1.18926055E+00  1.18926057E+00  1.18926055E+00
  1.18926055E+00  1.18926057E+00  1.18926055E+00 -1.18926055E+00 -1.18926055E+00
Force Field                                I                0
Int Atom Types                             I   N=           5
           0           0           0           0           0
MM charges                                 R   N=           5
  0.00000000E+00  0.00000000E+00  0.00000000E+00  0.00000000E+00  0.00000000E+00
Integer atomic weights                     I   N=           5
          12           1           1           1           1
Real atomic weights                        R   N=           5
  1.20000000E+01  1.00782504E+00  1.00782504E+00  1.00782504E+00  1.00782504E+00
Atom fragment info                         I   N=           5
           0           0           0           0           0
Atom residue num                           I   N=           5
           0           0           0           0           0
Nuclear spins                              I   N=           5
           0           1           1           1           1
Nuclear ZEff                               R   N=           5
 -3.60000000E+00 -1.00000000E+00 -1.00000000E+00 -1.00000000E+00 -1.00000000E+00
Nuclear ZNuc                               R   N=           5
  6.00000000E+00  1.00000000E+00  1.00000000E+00  1.00000000E+00  1.00000000E+00
Nuclear QMom                               R   N=           5
  0.00000000E+00  0.00000000E+00  0.00000000E+00  0.00000000E+00  0.00000000E+00
Nuclear GFac                               R   N=           5
  0.00000000E+00  2.79284600E+00  2.79284600E+00  2.79284600E+00  2.79284600E+00
MicOpt                                     I   N=           5
          -1          -1          -1          -1          -1
Number of contracted shells                I               30
Number of primitive shells                 I               60
Pure/Cartesian d shells                    I                0
Pure/Cartesian f shells                    I                0
Highest angular momentum                   I                2
Largest degree of contraction              I                5
Shell types                                I   N=          30
           0           0           0           0           0           1
           1           1          -2          -2           0           0
           0           1           1           0           0           0
           1           1           0           0           0           1
           1           0           0           0           1           1
Number of primitives per shell             I   N=          30
           5           2           1           1           1           4
           1           1           2           2           4           1
           1           2           2           4           1           1
           2           2           4           1           1           2
           2           4           1           1           2           2
Shell to atom map                          I   N=          30
           1           1           1           1           1           1
           1           1           1           1           2           2
           2           2           2           3           3           3
           3           3           4           4           4           4
           4           5           5           5           5           5
Primitive exponents                        R   N=          60
  5.24063530E+03  7.82204800E+02  1.78350830E+02  5.08159420E+01  1.68235620E+01
  6.17577600E+00  2.41804900E+00  5.11900000E-01  1.56590000E-01  4.79000000E-02
  1.88418000E+01  4.15924000E+00  1.20671000E+00  3.85540000E-01  1.21940000E-01
  3.85680000E-02  1.20670000E+00  3.85500000E-01  1.21900000E-01  3.86000000E-02
  3.38650140E+01  5.09478800E+00  1.15878600E+00  3.25840000E-01  1.02741000E-01
  3.24000000E-02  1.15880000E+00  3.25800000E-01  1.02700000E-01  3.24000000E-02
  3.38650140E+01  5.09478800E+00  1.15878600E+00  3.25840000E-01  1.02741000E-01
  3.24000000E-02  1.15880000E+00  3.25800000E-01  1.02700000E-01  3.24000000E-02
  3.38650140E+01  5.09478800E+00  1.15878600E+00  3.25840000E-01  1.02741000E-01
  3.24000000E-02  1.15880000E+00  3.25800000E-01  1.02700000E-01  3.24000000E-02
  3.38650140E+01  5.09478800E+00  1.15878600E+00  3.25840000E-01  1.02741000E-01
  3.24000000E-02  1.15880000E+00  3.25800000E-01  1.02700000E-01  3.24000000E-02
Contraction coefficients                   R   N=          60
  2.06539993E-03  1.59324554E-02  8.01119476E-02  2.87877514E-01  7.03009673E-01
  6.94067370E-01  3.40077856E-01  1.00000000E+00  1.00000000E+00  1.00000000E+00
  1.80615059E-02  1.12214925E-01  3.75541979E-01  6.49536597E-01  1.00000000E+00
  1.00000000E+00  2.67978866E-01  8.19993920E-01  4.83796365E-01  6.39336711E-01
  8.76044950E-03  6.54232910E-02  2.92851374E-01  7.27211150E-01  1.00000000E+00
  1.00000000E+00  1.86447366E-01  8.73088966E-01  9.76214574E-01  3.48056130E-02
  8.76044950E-03  6.54232910E-02  2.92851374E-01  7.27211150E-01  1.00000000E+00
  1.00000000E+00  1.86447366E-01  8.73088966E-01  9.76214574E-01  3.48056130E-02
  8.76044950E-03  6.54232910E-02  2.92851374E-01  7.27211150E-01  1.00000000E+00
  1.00000000E+00  1.86447366E-01  8.73088966E-01  9.76214574E-01  3.48056130E-02
  8.76044950E-03  6.54232910E-02  2.92851374E-01  7.27211150E-01  1.00000000E+00
  1.00000000E+00  1.86447366E-01  8.73088966E-01  9.76214574E-01  3.48056130E-02
Coordinates of each shell                  R   N=          90
  0.00000000E+00  0.00000000E+00  0.00000000E+00  0.00000000E+00  0.00000000E+00
  0.00000000E+00  0.00000000E+00  0.00000000E+00  0.00000000E+00  0.00000000E+00
  0.00000000E+00  0.00000000E+00  0.00000000E+00  0.00000000E+00  0.00000000E+00
  0.00000000E+00  0.00000000E+00  0.00000000E+00  0.00000000E+00  0.00000000E+00
  0.00000000E+00  0.00000000E+00  0.00000000E+00  0.00000000E+00  0.00000000E+00
  0.00000000E+00  0.00000000E+00  0.00000000E+00  0.00000000E+00  0.00000000E+00
 -1.18926055E+00  1.18926055E+00 -1.18926055E+00 -1.18926055E+00  1.18926055E+00
 -1.18926055E+00 -1.18926055E+00  1.18926055E+00 -1.18926055E+00 -1.18926055E+00
  1.18926055E+00 -1.18926055E+00 -1.18926055E+00  1.18926055E+00 -1.18926055E+00
 -1.18926055E+00 -1.18926055E+00  1.18926057E+00 -1.18926055E+00 -1.18926055E+00
  1.18926057E+00 -1.18926055E+00 -1.18926055E+00  1.18926057E+00 -1.18926055E+00
 -1.18926055E+00  1.18926057E+00 -1.18926055E+00 -1.18926055E+00  1.18926057E+00
  1.18926055E+00  1.18926055E+00  1.18926057E+00  1.18926055E+00  1.18926055E+00
  1.18926057E+00  1.18926055E+00  1.18926055E+00  1.18926057E+00  1.18926055E+00
  1.18926055E+00  1.18926057E+00  1.18926055E+00  1.18926055E+00  1.18926057E+00
  1.18926055E+00 -1.18926055E+00 -1.18926055E+00  1.18926055E+00 -1.18926055E+00
 -1.18926055E+00  1.18926055E+00 -1.18926055E+00 -1.18926055E+00  1.18926055E+00
 -1.18926055E+00 -1.18926055E+00  1.18926055E+00 -1.18926055E+00 -1.18926055E+00
Constraint Structure                       R   N=          15
  0.00000000E+00  0.00000000E+00  0.00000000E+00 -1.18926055E+00  1.18926055E+00
 -1.18926055E+00 -1.18926055E+00 -1.18926055E+00  1.18926057E+00  1.18926055E+00
  1.18926055E+00  1.18926057E+00  1.18926055E+00 -1.18926055E+00 -1.18926055E+00
Num ILSW                                   I              100
ILSW                                       I   N=         100
           0           0           0           0           2           0
           0           0           0           0           0          -1
           0           0           0           0           2           0
           0           0           0           0           1           0
           1           1           0           0           0           0
           0           0      100000           0          -1           0
           0           0           0           0           0           0
           0           0           0           1           0           0
           0           0           1           0           0           0
           0           0           4          41           0           0
           0           0           0           0           0           0
           0           0           0           5           0           0
           0           0           0           0           0           0
           0           0           0           0           0           0
           0           0           0           0           0           0
           0           0           0           0           0           0
           0           0           0           0
Num RLSW                                   I               41
RLSW                                       R   N=          41
  1.00000000E+00  1.00000000E+00  1.00000000E+00  1.00000000E+00  1.00000000E+00
  0.00000000E+00  0.00000000E+00  1.00000000E+00  0.00000000E+00  0.00000000E+00
  0.00000000E+00  0.00000000E+00  1.00000000E+00  0.00000000E+00  0.00000000E+00
  0.00000000E+00  0.00000000E+00  1.00000000E+00  0.00000000E+00  0.00000000E+00
  0.00000000E+00  0.00000000E+00  1.00000000E+00  0.00000000E+00  0.00000000E+00
  0.00000000E+00  0.00000000E+00  1.00000000E+00  0.00000000E+00  0.00000000E+00
  0.00000000E+00  0.00000000E+00  1.00000000E+00  0.00000000E+00  0.00000000E+00
  0.00000000E+00  0.00000000E+00  0.00000000E+00  1.00000000E+00  1.00000000E+00
  0.00000000E+00
MxBond                                     I                4
NBond                                      I   N=           5
           4           1           1           1           1
IBond                                      I   N=          20
           2           3           4           5           1           0
           0           0           1           0           0           0
           1           0           0           0           1           0
           0           0
RBond                                      R   N=          20
  1.00000000E+00  1.00000000E+00  1.00000000E+00  1.00000000E+00  1.00000000E+00
  0.00000000E+00  0.00000000E+00  0.00000000E+00  1.00000000E+00  0.00000000E+00
  0.00000000E+00  0.00000000E+00  1.00000000E+00  0.00000000E+00  0.00000000E+00
  0.00000000E+00  1.00000000E+00  0.00000000E+00  0.00000000E+00  0.00000000E+00
Virial Ratio                               R      2.003391604542602E+00
SCF Energy                                 R     -4.020340273159353E+01
Total Energy                               R     -4.020340273159353E+01
RMS Force                                  R      4.662620051883849E-06
RMS Density                                R      5.406174429364533E-12
External E-field                           R   N=          35
  0.00000000E+00  0.00000000E+00  0.00000000E+00  0.00000000E+00  0.00000000E+00
  0.00000000E+00  0.00000000E+00  0.00000000E+00  0.00000000E+00  0.00000000E+00
  0.00000000E+00  0.00000000E+00  0.00000000E+00  0.00000000E+00  0.00000000E+00
  0.00000000E+00  0.00000000E+00  0.00000000E+00  0.00000000E+00  0.00000000E+00
  0.00000000E+00  0.00000000E+00  0.00000000E+00  0.00000000E+00  0.00000000E+00
  0.00000000E+00  0.00000000E+00  0.00000000E+00  0.00000000E+00  0.00000000E+00
  0.00000000E+00  0.00000000E+00  0.00000000E+00  0.00000000E+00  0.00000000E+00
IOpCl                                      I                0
IROHF                                      I                0
Alpha Orbital Energies                     R   N=          60
 -1.12195625E+01 -9.43468530E-01 -5.43847545E-01 -5.43847544E-01 -5.43847541E-01
  3.79858515E-02  5.96896520E-02  5.96896520E-02  5.96896522E-02  1.20054942E-01
  1.20054942E-01  1.21682797E-01  1.21682797E-01  1.21682798E-01  1.71747246E-01
  1.99409620E-01  1.99409620E-01  1.99409621E-01  3.10043041E-01  3.10043041E-01
  3.10043042E-01  3.36527355E-01  3.36527355E-01  3.55949690E-01  3.96005254E-01
  3.96005255E-01  3.96005255E-01  4.26405456E-01  4.26405456E-01  4.26405457E-01
  4.79202490E-01  4.79202491E-01  4.79202491E-01  4.98680475E-01  8.15562412E-01
  8.15562412E-01  8.15562415E-01  9.27841507E-01  9.80092319E-01  9.80092321E-01
  9.99193222E-01  9.99193223E-01  9.99193223E-01  1.31611374E+00  1.31611374E+00
  1.31611374E+00  1.54114904E+00  1.54114904E+00  1.54114904E+00  1.54579642E+00
  1.79618874E+00  1.79618874E+00  1.79618875E+00  2.20889535E+00  2.27047410E+00
  2.27047411E+00  2.67850729E+00  2.67850730E+00  2.67850730E+00  2.29618357E+01
Alpha MO coefficients                      R   N=        3600
  4.53362582E-01  6.31161512E-01  1.35930419E-02 -1.21871813E-02 -6.15275324E-03
  2.92554577E-15  5.98768946E-16  2.43045630E-12  4.43741145E-13 -1.64500952E-14
  1.02418281E-13  3.67072554E-13 -6.03385113E-14  2.22878946E-11  4.11265574E-12
  2.43301528E-15  1.45892738E-14  4.25074394E-16 -7.97835848E-12  6.89187377E-13
 -1.79517547E-14  1.09073059E-13  2.22196866E-15  9.35204514E-12  6.66443003E-04
  3.00621595E-03  6.41524116E-04  2.34928186E-05 -2.34928186E-05  2.34928201E-05
  5.49252992E-04 -5.49252992E-04  5.49252994E-04  6.66443001E-04  3.00621590E-03
  6.41524067E-04  2.34928153E-05  2.34928153E-05 -2.34928216E-05  5.49252987E-04
  5.49252987E-04 -5.49253000E-04  6.66443001E-04  3.00621589E-03  6.41524067E-04
 -2.34928153E-05 -2.34928153E-05 -2.34928215E-05 -5.49252987E-04 -5.49252987E-04
 -5.49253000E-04  6.66443003E-04  3.00621595E-03  6.41524115E-04 -2.34928186E-05
  2.34928186E-05  2.34928201E-05 -5.49252992E-04  5.49252992E-04  5.49252994E-04
 -8.78514659E-02 -2.02217569E-01  4.04465562E-01 -7.17436125E-02 -1.25478141E-01
  1.35346029E-14  1.05918437E-14 -7.62841810E-10 -4.70367799E-13 -1.21754593E-12
  1.12983640E-10 -2.14006114E-13 -8.77619849E-13  1.03907311E-09  7.20804598E-11
 -2.30861973E-14 -7.14249007E-15  2.74078578E-15 -1.52193615E-10 -7.71744461E-11
 -2.68556121E-13 -1.01429903E-13 -1.09868063E-14  3.82586462E-10  2.27465862E-01
  8.55308065E-02  1.11436503E-02  2.76611548E-02 -2.76611548E-02  2.76611549E-02
  5.82271199E-03 -5.82271199E-03  5.82271193E-03  2.27465859E-01  8.55308054E-02
  1.11436482E-02  2.76611545E-02  2.76611545E-02 -2.76611551E-02  5.82271190E-03
  5.82271190E-03 -5.82271222E-03  2.27465859E-01  8.55308054E-02  1.11436482E-02
 -2.76611545E-02 -2.76611545E-02 -2.76611551E-02 -5.82271190E-03 -5.82271190E-03
 -5.82271222E-03  2.27465862E-01  8.55308065E-02  1.11436503E-02 -2.76611548E-02
  2.76611548E-02  2.76611549E-02 -5.82271199E-03  5.82271199E-03  5.82271193E-03
  8.97293345E-11  1.84044076E-10 -4.18131401E-10  4.11114127E-09  2.91836145E-09
  2.69155537E-06 -1.25747599E-06  4.84312022E-01 -9.81580668E-07  4.58592634E-07
 -1.76623576E-01 -1.27936554E-06  5.97713759E-07 -2.30206054E-01  3.10559588E-10
 -9.23038432E-08  1.97571296E-07 -3.83152816E-15  3.55504974E-02 -6.93512668E-10
  1.75323059E-07 -3.75266895E-07  6.35656986E-15 -6.75246594E-02 -2.61479996E-01
 -3.07378536E-01 -2.05934074E-01 -2.07089474E-02  2.07090139E-02  1.74227453E-03
 -3.33115157E-02  3.33116160E-02  5.55221995E-04  2.61477091E-01  3.07375118E-01
  2.05931784E-01  2.07089667E-02  2.07087836E-02  1.74250435E-03  3.33115216E-02
  3.33112454E-02  5.55591619E-04  2.61478639E-01  3.07376938E-01  2.05933004E-01
 -2.07088398E-02 -2.07090228E-02  1.74238171E-03 -3.33113424E-02 -3.33116185E-02
  5.55394347E-04 -2.61475732E-01 -3.07373523E-01 -2.05930716E-01  2.07088593E-02
 -2.07087928E-02  1.74261225E-03  3.33113489E-02 -3.33112486E-02  5.55765232E-04
  1.09480015E-15  1.31346603E-14 -2.23507829E-13  2.72353212E-12  3.79919385E-12
  3.42461379E-01 -3.42459251E-01 -2.79238997E-06 -1.24892117E-01  1.24891341E-01
  1.01835583E-06 -1.62780767E-01  1.62779756E-01  1.32729534E-06 -1.30794500E-15
 -2.51379198E-02  2.51380760E-02 -3.16481625E-15 -2.04972920E-07 -8.80061261E-15
  4.77469962E-02 -4.77472930E-02  1.02470277E-14  3.89325868E-07 -3.69784035E-01
 -4.34693581E-01 -2.91231200E-01 -1.34111438E-02  1.34112424E-02 -2.92868220E-02
 -2.31616805E-02  2.31618293E-02 -4.71094834E-02 -2.65659990E-06 -3.12292700E-06
 -2.09226438E-06  1.58753384E-02 -1.58756605E-02  8.09540020E-08  2.39472687E-02
 -2.39477968E-02  1.43176842E-07 -3.58597678E-07 -4.21541665E-07 -2.82418620E-07
  1.58755772E-02 -1.58754217E-02 -1.01046619E-07  2.39476529E-02 -2.39474127E-02
 -1.49582127E-07  3.69787050E-01  4.34697125E-01  2.91233575E-01 -1.34113826E-02
  1.34114812E-02  2.92868019E-02 -2.31620646E-02  2.31622135E-02  4.71094770E-02
 -4.47527381E-15 -1.31656911E-14  1.82488733E-13 -2.05479766E-12 -2.87558346E-12
 -3.42459250E-01 -3.42461378E-01  1.01403862E-06  1.24891333E-01  1.24892109E-01
 -3.69811600E-07  1.62779751E-01  1.62780763E-01 -4.82000745E-07  4.28080964E-16
 -2.51380761E-02 -2.51379199E-02 -5.27572205E-16  7.44345758E-08  3.97805192E-15
  4.77472925E-02  4.77469957E-02 -1.40766333E-14 -1.41381803E-07 -1.69648026E-06
 -1.99426865E-06 -1.33609818E-06 -1.58755845E-02 -1.58754144E-02 -8.73522293E-08
 -2.39476739E-02 -2.39473905E-02 -1.45216344E-07  3.69786089E-01  4.34695984E-01
  2.91232810E-01  1.34114050E-02  1.34113063E-02 -2.92868083E-02  2.31620894E-02
  2.31619406E-02 -4.71094778E-02 -3.69784994E-01 -4.34694697E-01 -2.91231948E-01
  1.34113182E-02  1.34112196E-02  2.92868156E-02  2.31619499E-02  2.31618011E-02
  4.71094801E-02  6.01530632E-07  7.07114974E-07  4.73744406E-07 -1.58754978E-02
 -1.58755012E-02  9.46488768E-08 -2.39475345E-02 -2.39475300E-02  1.47541945E-07
 -1.48282029E-02 -3.35234187E-02  2.69461397E-02  9.53377897E-01  5.03296991E+00
 -5.57054367E-13  1.34194410E-13  5.22952430E-10 -9.79336287E-11  3.44672472E-11
  3.62302170E-09 -2.26079898E-10  6.41992940E-11  7.48496221E-09  1.20413362E-10
  9.20841621E-14  1.49056969E-13  2.62648172E-14 -1.05748946E-10  2.55809492E-09
  1.66909782E-11 -5.66862603E-11 -1.07316099E-12 -5.91340840E-10  2.40198724E-03
 -6.66421407E-01 -1.12134573E+00 -3.54423173E-03  3.54423174E-03 -3.54423172E-03
 -8.21598272E-02  8.21598272E-02 -8.21598274E-02  2.40198715E-03 -6.66421404E-01
 -1.12134573E+00 -3.54423169E-03 -3.54423169E-03  3.54423165E-03 -8.21598269E-02
 -8.21598269E-02  8.21598275E-02  2.40198715E-03 -6.66421404E-01 -1.12134573E+00
  3.54423169E-03  3.54423169E-03  3.54423165E-03  8.21598269E-02  8.21598269E-02
  8.21598275E-02  2.40198724E-03 -6.66421407E-01 -1.12134573E+00  3.54423173E-03
 -3.54423173E-03 -3.54423171E-03  8.21598272E-02 -8.21598272E-02 -8.21598273E-02
  4.72504720E-12 -1.29160129E-11  4.57450236E-10 -1.21237747E-08 -3.62568064E-08
  5.43205129E-04 -2.43234316E-04  5.10362315E-02  1.94693493E-02 -8.71791059E-03
  1.82922095E+00  4.31793443E-02 -1.93346816E-02  4.05686706E+00 -1.21288520E-11
  1.10712091E-05 -2.47248693E-05  5.73247898E-14 -2.32299745E-03  1.65562721E-08
 -5.07444718E-03  1.13325531E-02 -1.78791825E-12  1.06473734E+00  4.41594846E-03
  2.67675136E+00  5.81744297E+00  5.40371755E-03 -5.48028368E-03 -7.48438681E-03
  4.16117789E-01 -4.15263526E-01  5.59912898E-01 -4.32337259E-03 -2.62063594E+00
 -5.69548610E+00 -5.56482867E-03 -5.36409376E-03 -7.60057691E-03 -4.04332828E-01
 -4.06572467E-01  5.51221836E-01 -4.37449523E-03 -2.65162421E+00 -5.76283358E+00
  5.35169062E-03  5.55242554E-03 -7.53641391E-03  4.12226142E-01  4.09986503E-01
  5.56021247E-01  4.28191925E-03  2.59550881E+00  5.64087674E+00 -5.51280123E-03
  5.43623510E-03 -7.65260419E-03 -4.00441175E-01  4.01295439E-01  5.47330186E-01
  7.88669253E-13  1.90904382E-12 -6.57878773E-12 -3.31657816E-11 -2.36785672E-10
 -3.61750860E-02  3.60014510E-02  5.56610080E-04 -1.29657351E+00  1.29035015E+00
  1.99498041E-02 -2.87555548E+00  2.86175325E+00  4.42449026E-02 -8.38389471E-14
 -1.63866491E-03  1.64656819E-03 -1.03875004E-14 -2.53350173E-05  1.78583660E-10
  7.51076028E-01 -7.54698467E-01  1.41538313E-12  1.16122119E-02 -6.10292534E-03
 -3.69932186E+00 -8.03981804E+00  1.57385924E-03 -1.52953974E-03 -7.80173129E-03
 -6.75965050E-01  6.75470569E-01 -5.71359747E-01 -6.22261372E-05 -3.77187122E-02
 -8.19749114E-02  9.15541947E-03 -9.26729753E-03 -6.39732943E-05 -1.08861987E-01
  9.66838821E-02  7.42693797E-03 -3.26343354E-05 -1.97814805E-02 -4.29915299E-02
  9.27447695E-03 -9.14824005E-03 -1.01113375E-04 -9.99564523E-02  1.05589417E-01
  4.64884902E-03  6.19778580E-03  3.75682206E+00  8.16478448E+00  1.45480178E-03
 -1.41048228E-03  7.63664461E-03 -6.84870585E-01  6.84376104E-01  5.83435534E-01
 -4.35866104E-13 -1.14982201E-12  6.94385512E-12 -4.50980028E-11 -2.17580871E-11
  3.60016561E-02  3.61785506E-02 -2.10760455E-04  1.29035749E+00  1.29669767E+00
 -7.55399485E-03  2.86176951E+00  2.87583084E+00 -1.67533359E-02  2.57077369E-14
 -1.64672583E-03 -1.63867418E-03  4.86476664E-14  9.59310712E-06 -6.62855238E-11
  7.54770746E-01  7.51080306E-01 -2.78566193E-12 -4.39696497E-03 -3.30331057E-05
 -2.00232019E-02 -4.35168685E-02 -9.23071062E-03 -9.19294370E-03  1.23364109E-05
  9.94251172E-02  1.06131202E-01 -3.70136858E-03  6.16862756E-03  3.73914770E+00
  8.12637238E+00 -1.44713027E-03 -1.49228173E-03 -7.68832603E-03  6.81639312E-01
  6.82143076E-01 -5.79713254E-01 -6.13270863E-03 -3.71737524E+00 -8.07905382E+00
 -1.49221139E-03 -1.53736286E-03  7.75083611E-03  6.78267231E-01  6.78770995E-01
  5.75140756E-01 -2.88581087E-06 -1.74925044E-03 -3.80168471E-03 -9.18562950E-03
 -9.23802482E-03  5.01736767E-05  1.02797199E-01  1.02759120E-01 -8.71129101E-04
  9.38419906E-11  2.40303336E-10 -6.77962883E-10 -7.92542778E-09  5.78366130E-08
 -4.73813178E-13 -1.97093968E-13  7.47741315E-10  1.14990928E-11 -1.08557214E-12
  8.71626171E-09  4.80840624E-11  6.70772258E-11 -5.06805918E-07 -2.17992738E-02
  9.53412209E-14  1.05092969E-13  1.75970717E-07 -1.03133223E-09  2.35527243E+00
 -1.31249994E-11 -1.04461361E-12 -1.90125114E-05  1.42086473E-07 -4.59262650E-09
  1.21082936E-07 -4.03288315E-07 -1.13382462E-02  1.13379291E-02  2.26761726E-02
 -3.78289611E-01  3.78279033E-01  7.56568741E-01  4.14698572E-09 -1.44043904E-07
  3.91515607E-07 -1.13382479E-02 -1.13379309E-02 -2.26761813E-02 -3.78289604E-01
 -3.78279026E-01 -7.56568538E-01  4.14471245E-09 -1.44038618E-07  3.91329228E-07
  1.13382479E-02  1.13379309E-02 -2.26761813E-02  3.78289604E-01  3.78279026E-01
 -7.56568538E-01 -4.59239158E-09  1.21035387E-07 -4.03261625E-07  1.13382462E-02
 -1.13379291E-02  2.26761726E-02  3.78289611E-01 -3.78279033E-01  7.56568741E-01
 -3.37214315E-14 -9.01930089E-14  5.87630007E-13 -6.50453550E-12 -1.82992981E-11
  6.17855050E-13 -2.39000884E-13  2.28424574E-13 -9.44009811E-12 -1.15531502E-11
  9.78808867E-13 -7.95628220E-11  1.28058699E-10 -4.32779012E-11 -1.75970689E-07
  1.61029801E-13 -1.49060660E-13 -2.17992745E-02 -5.05811705E-14  1.90125113E-05
 -3.09436068E-11  9.54869270E-12  2.35527243E+00  8.84765969E-12 -2.32563016E-12
  5.16460468E-11 -1.95961748E-10  1.96380535E-02  1.96382365E-02  1.83049462E-07
  6.55204614E-01  6.55210722E-01  6.10727196E-06  8.48051728E-13 -4.54604801E-11
  7.16668939E-11  1.96380534E-02 -1.96382364E-02 -1.83049455E-07  6.55204605E-01
 -6.55210712E-01 -6.10725220E-06  1.77885305E-13  3.66354410E-11  1.43696661E-13
 -1.96380534E-02  1.96382364E-02 -1.83050195E-07 -6.55204605E-01  6.55210712E-01
 -6.10726087E-06  1.71125530E-12 -2.63337154E-11  1.33053670E-10 -1.96380535E-02
 -1.96382365E-02  1.83048774E-07 -6.55204614E-01 -6.55210722E-01  6.10727171E-06
 -3.72254749E-13 -1.07383385E-12  6.91651112E-12 -6.89619844E-11 -1.99830021E-10
 -6.84211512E-03 -6.90465842E-03  4.63956961E-06 -1.09107923E-01 -1.10105271E-01
  7.39851017E-05  2.35990736E+00  2.38147911E+00 -1.60022975E-03  2.15510765E-12
  3.60471448E-03  3.57206250E-03  2.85418566E-13 -2.42217973E-06 -2.31645637E-10
 -5.49708833E-01 -5.44729499E-01 -3.29128139E-11  3.69375712E-04 -2.14828934E-04
  5.56529125E-03 -1.83575896E-02  2.46322040E-02  2.47604439E-02  3.15700384E-05
 -4.32763627E-01 -4.36931168E-01  3.98881777E-04  4.39725411E-02 -1.13913882E+00
  3.75754710E+00  1.47098589E-02  1.49345792E-02  9.85743482E-03 -4.54434255E-01
 -4.58391081E-01  2.18587993E-02 -4.39428694E-02  1.13837016E+00 -3.75501159E+00
  1.47165217E-02  1.49412420E-02 -9.88411228E-03 -4.54419704E-01 -4.58376529E-01
 -2.12571990E-02  1.85157268E-04 -4.79662591E-03  1.58220824E-02  2.46255412E-02
  2.47671067E-02 -5.82475043E-05 -4.32778179E-01 -4.36916616E-01  2.02718236E-04
 -5.11573982E-13 -1.37869310E-12  7.42190745E-12 -7.32999200E-11 -2.59638001E-10
 -6.90465971E-03  6.84211101E-03 -8.02061350E-06 -1.10105292E-01  1.09107858E-01
 -1.27900791E-04  2.38147951E+00 -2.35990590E+00  2.76638105E-03 -3.14480325E-12
 -3.57206081E-03  3.60471560E-03 -8.52534681E-13  4.18731939E-06  3.36030478E-10
  5.44729173E-01 -5.49708938E-01  9.53139764E-11 -6.38554397E-04  4.39833415E-02
 -1.13941866E+00  3.75847012E+00  1.49321581E-02 -1.47074184E-02 -9.84771151E-03
 -4.58396453E-01  4.54439287E-01 -2.20779913E-02  1.74363072E-04 -4.51699503E-03
  1.48996950E-02  2.47695343E-02 -2.46231016E-02  6.79718436E-05 -4.36911397E-01
  4.32783206E-01 -4.21914833E-04 -2.25657669E-04  5.84581676E-03 -1.92829276E-02
  2.47580160E-02 -2.46346199E-02 -2.18534605E-05 -4.36936553E-01  4.32758049E-01
 -6.18095408E-04 -4.39320469E-02  1.13808984E+00 -3.75408689E+00  1.49436763E-02
 -1.47189366E-02  9.89382991E-03 -4.58371297E-01  4.54414130E-01  2.10379816E-02
  2.28240008E-11  6.14242803E-11 -1.93087340E-10 -6.60997586E-11  2.09410245E-09
  2.43146126E-06 -8.94113032E-06 -9.72053483E-03  3.87733569E-05 -1.42579797E-04
 -1.55008708E-01 -8.38633115E-04  3.08387645E-03  3.35270013E+00 -3.65044583E-09
  4.66789604E-06 -1.26939350E-06 -2.21058371E-13  5.07479884E-03  3.88418162E-07
 -7.11840816E-04  1.93578886E-04  2.57670258E-11 -7.73892515E-01  3.10467360E-02
 -8.04287016E-01  2.65300967E+00 -6.98033299E-03  7.00372246E-03  2.79546354E-02
 -1.50723595E-02  1.46605230E-02 -6.30199246E-01 -3.10622858E-02  8.04689841E-01
 -2.65433845E+00  6.96634818E-03  7.00721031E-03  2.79511357E-02  1.53875180E-02
  1.46680268E-02 -6.30207121E-01 -3.11039174E-02  8.05768335E-01 -2.65789596E+00
 -6.99316928E-03 -6.95230716E-03  2.79417872E-02 -1.51002805E-02 -1.58197718E-02
 -6.30227538E-01  3.11194677E-02 -8.06171180E-01  2.65922475E+00  6.97919235E-03
 -6.95580288E-03  2.79383034E-02  1.54156837E-02 -1.58275203E-02 -6.30234916E-01
  3.20367952E-02  8.13380687E-02 -3.10781166E-01  2.23260320E+00  1.16162103E+01
  2.37821355E-11 -2.96386961E-12 -2.07535322E-09 -5.12331469E-10  5.60578847E-11
  1.64579662E-08 -8.88602134E-10  9.57393668E-11  2.73193629E-08  3.15248471E-10
 -1.31058916E-13  1.35516813E-12  3.23297212E-14 -5.54623008E-11 -1.03125342E-09
  3.98916407E-11 -3.51817199E-10  2.00317963E-12  3.47118789E-09 -1.79447282E-02
 -1.98844378E+00 -1.63560685E+00 -4.36654603E-02  4.36654603E-02 -4.36654608E-02
 -2.58632107E-01  2.58632107E-01 -2.58632111E-01 -1.79447273E-02 -1.98844380E+00
 -1.63560687E+00 -4.36654604E-02 -4.36654604E-02  4.36654607E-02 -2.58632110E-01
 -2.58632110E-01  2.58632117E-01 -1.79447273E-02 -1.98844380E+00 -1.63560687E+00
  4.36654604E-02  4.36654604E-02  4.36654607E-02  2.58632110E-01  2.58632110E-01
  2.58632117E-01 -1.79447282E-02 -1.98844378E+00 -1.63560684E+00  4.36654603E-02
 -4.36654603E-02 -4.36654607E-02  2.58632107E-01 -2.58632107E-01 -2.58632111E-01
 -4.32618339E-12 -1.58270006E-11  1.51011858E-10 -3.30594066E-09 -8.38871022E-09
 -1.67826703E-01  1.63447831E-01 -2.24479441E-02  3.18989073E+00 -3.10666129E+00
  4.26669221E-01  6.17561865E+00 -6.01448669E+00  8.26030298E-01  1.44012395E-11
  9.44993233E-03 -9.70310206E-03  1.69632932E-14 -1.29785477E-03  1.95823732E-09
 -2.07482831E+00  2.13041429E+00  8.25029768E-13  2.84957158E-01  1.21934121E-01
  1.07404521E+01  1.35616776E+01  2.93119300E-02 -3.00593374E-02  5.41258922E-02
  1.82954140E+00 -1.82138430E+00  1.55872508E+00 -6.22871465E-03 -5.48650450E-01
 -6.92766051E-01 -3.16061042E-02  2.49374629E-02 -8.70908660E-04  2.35145433E-01
 -3.81963634E-01  1.19304421E-01 -9.24765724E-03 -8.14571165E-01 -1.02853693E+00
 -2.42499141E-02  3.22936529E-02  5.64047581E-04  4.27677572E-01 -1.89431495E-01
  1.56861253E-01 -1.06457749E-01 -9.37723043E+00 -1.18403746E+01  2.19557399E-02
 -2.27031474E-02 -5.44327535E-02  1.63700926E+00 -1.62885216E+00 -1.28255941E+00
 -7.83923675E-11 -2.43133530E-10  1.72131467E-09 -3.43545239E-08 -9.49801921E-08
  1.42694355E-02 -1.75205676E-02 -2.34252682E-01 -2.71219891E-01  3.33014325E-01
  4.45245271E+00 -5.25080874E-01  6.44714708E-01  8.61993473E+00  1.51173961E-10
 -1.01297262E-03  8.25004527E-04  7.51593450E-14 -1.35435994E-02  2.04477925E-08
  2.22408394E-01 -1.81138095E-01  3.17293537E-13  2.97363439E+00  6.97923099E-02
  6.14758973E+00  7.76239489E+00  3.56090818E-02 -3.61640011E-02 -6.80989714E-03