 Entering Gaussian System, Link 0=g09
 Initial command:
 /home/unamur/ucpts/pbeaujea/gaussian//g09/l1.exe "/scratch/unamur/ucpts/pbeaujea/2488277/Gau-7604.inp" -scrdir="/scratch/unamur/ucpts/pbeaujea/2488277/"
 Entering Link 1 = /home/unamur/ucpts/pbeaujea/gaussian//g09/l1.exe PID=      7605.
  
 Copyright (c) 1988,1990,1992,1993,1995,1998,2003,2009,2013,
            Gaussian, Inc.  All Rights Reserved.
  
 This is part of the Gaussian(R) 09 program.  It is based on
 the Gaussian(R) 03 system (copyright 2003, Gaussian, Inc.),
 the Gaussian(R) 98 system (copyright 1998, Gaussian, Inc.),
 the Gaussian(R) 94 system (copyright 1995, Gaussian, Inc.),
 the Gaussian 92(TM) system (copyright 1992, Gaussian, Inc.),
 the Gaussian 90(TM) system (copyright 1990, Gaussian, Inc.),
 the Gaussian 88(TM) system (copyright 1988, Gaussian, Inc.),
 the Gaussian 86(TM) system (copyright 1986, Carnegie Mellon
 University), and the Gaussian 82(TM) system (copyright 1983,
 Carnegie Mellon University). Gaussian is a federally registered
 trademark of Gaussian, Inc.
  
 This software contains proprietary and confidential information,
 including trade secrets, belonging to Gaussian, Inc.
  
 This software is provided under written license and may be
 used, copied, transmitted, or stored only in accord with that
 written license.
  
 The following legend is applicable only to US Government
 contracts under FAR:
  
                    RESTRICTED RIGHTS LEGEND
  
 Use, reproduction and disclosure by the US Government is
 subject to restrictions as set forth in subparagraphs (a)
 and (c) of the Commercial Computer Software - Restricted
 Rights clause in FAR 52.227-19.
  
 Gaussian, Inc.
 340 Quinnipiac St., Bldg. 40, Wallingford CT 06492
  
  
 ---------------------------------------------------------------
 Warning -- This program may not be used in any manner that
 competes with the business of Gaussian, Inc. or will provide
 assistance to any competitor of Gaussian, Inc.  The licensee
 of this program is prohibited from giving any competitor of
 Gaussian, Inc. access to this program.  By using this program,
 the user acknowledges that Gaussian, Inc. is engaged in the
 business of creating and licensing software in the field of
 computational chemistry and represents and warrants to the
 licensee that it is not a competitor of Gaussian, Inc. and that
 it will not use this program in any manner prohibited above.
 ---------------------------------------------------------------
  

 Cite this work as:
 Gaussian 09, Revision D.01,
 M. J. Frisch, G. W. Trucks, H. B. Schlegel, G. E. Scuseria, 
 M. A. Robb, J. R. Cheeseman, G. Scalmani, V. Barone, B. Mennucci, 
 G. A. Petersson, H. Nakatsuji, M. Caricato, X. Li, H. P. Hratchian, 
 A. F. Izmaylov, J. Bloino, G. Zheng, J. L. Sonnenberg, M. Hada, 
 M. Ehara, K. Toyota, R. Fukuda, J. Hasegawa, M. Ishida, T. Nakajima, 
 Y. Honda, O. Kitao, H. Nakai, T. Vreven, J. A. Montgomery, Jr., 
 J. E. Peralta, F. Ogliaro, M. Bearpark, J. J. Heyd, E. Brothers, 
 K. N. Kudin, V. N. Staroverov, T. Keith, R. Kobayashi, J. Normand, 
 K. Raghavachari, A. Rendell, J. C. Burant, S. S. Iyengar, J. Tomasi, 
 M. Cossi, N. Rega, J. M. Millam, M. Klene, J. E. Knox, J. B. Cross, 
 V. Bakken, C. Adamo, J. Jaramillo, R. Gomperts, R. E. Stratmann, 
 O. Yazyev, A. J. Austin, R. Cammi, C. Pomelli, J. W. Ochterski, 
 R. L. Martin, K. Morokuma, V. G. Zakrzewski, G. A. Voth, 
 P. Salvador, J. J. Dannenberg, S. Dapprich, A. D. Daniels, 
 O. Farkas, J. B. Foresman, J. V. Ortiz, J. Cioslowski, 
 and D. J. Fox, Gaussian, Inc., Wallingford CT, 2013.
 
 ******************************************
 Gaussian 09:  AM64L-G09RevD.01 24-Apr-2013
                22-Sep-2017 
 ******************************************
 %NProcShared=2
 Will use up to    2 processors via shared memory.
 %Chk=CH3F-Cl_TS.chk
 -------------------------------
 #p HF/6-31+G(d) Opt=(QST3) freq
 -------------------------------
 1/5=1,18=20,27=203,38=1/1,3;
 2/9=110,12=2,17=6,18=5,40=1/2;
 3/5=1,6=6,7=11,11=9,16=1,25=1,30=1,71=1/1,2,3;
 4//1;
 5/5=2,38=5/2;
 6/7=2,8=2,9=2,10=2,28=1/1;
 7//1,2,3,16;
 1/5=1,18=20,27=203/3(2);
 2/9=110/2;
 99//99;
 2/9=110/2;
 3/5=1,6=6,7=11,11=9,16=1,25=1,30=1,71=1/1,2,3;
 4/5=5,16=3,69=1/1;
 5/5=2,38=5/2;
 7//1,2,3,16;
 1/5=1,18=20,27=203/3(-5);
 2/9=110/2;
 6/7=2,8=2,9=2,10=2,19=2,28=1/1;
 99/9=1/99;
 Leave Link    1 at Fri Sep 22 13:46:43 2017, MaxMem=           0 cpu:         0.1
 (Enter /home/unamur/ucpts/pbeaujea/gaussian//g09/l101.exe)
 ----------------------
 CH3F + Cl- (reactives)
 ----------------------
 Symbolic Z-matrix:
 Charge = -1 Multiplicity = 1
 9                    -2.73037   0.        0. 
 6                    -1.33205  0.        0. 
 1                    -0.99246   0.19749   1.00254 
 1                    -0.99246   0.76948  -0.67231 
 1                    -0.99247  -0.96698  -0.33024 
 17                    2.09076   0.        0. 
 
 Add virtual bond connecting atoms Cl6        and H3         Dist= 6.14D+00.
 Add virtual bond connecting atoms Cl6        and H4         Dist= 6.14D+00.
 Add virtual bond connecting atoms Cl6        and H5         Dist= 6.14D+00.
 --------------------
 CH3Cl + F- (product)
 --------------------
 Symbolic Z-matrix:
 Charge = -1 Multiplicity = 1
 9                    -2.79816   0.00004   0.00016 
 6                    -0.21329  -0.0001   -0.00037 
 1                    -0.52641   0.72253  -0.72477 
 1                    -0.52644  -0.98874  -0.26408 
 1                    -0.52697   0.26589   0.9875 
 17                    1.64959   0.00003   0.00012 
 
 Add virtual bond connecting atoms C2         and F1         Dist= 4.88D+00.
 Add virtual bond connecting atoms H3         and F1         Dist= 4.71D+00.
 Add virtual bond connecting atoms H4         and F1         Dist= 4.71D+00.
 Add virtual bond connecting atoms H5         and F1         Dist= 4.71D+00.
 -------------
 Cl-CH3-F (TS)
 -------------
 Symbolic Z-matrix:
 Charge = -1 Multiplicity = 1
 F                     0.        0.        1.38 
 C                     0.        0.        0. 
 H                    -0.56049   0.8831   -0.36979 
 H                    -0.48455  -0.92695  -0.36979 
 H                     1.04504   0.04385  -0.36979 
 Cl                    0.        0.       -1.5 
 
 NAtoms=      6 NQM=        6 NQMF=       0 NMMI=      0 NMMIF=      0
                NMic=       0 NMicF=      0.
                    Isotopes and Nuclear Properties:
 (Nuclear quadrupole moments (NQMom) in fm**2, nuclear magnetic moments (NMagM)
  in nuclear magnetons)

  Atom         1           2           3           4           5           6
 IAtWgt=          19          12           1           1           1          35
 AtmWgt=  18.9984033  12.0000000   1.0078250   1.0078250   1.0078250  34.9688527
 NucSpn=           1           0           1           1           1           3
 AtZEff=   0.0000000   0.0000000   0.0000000   0.0000000   0.0000000   0.0000000
 NQMom=    0.0000000   0.0000000   0.0000000   0.0000000   0.0000000  -8.1650000
 NMagM=    2.6288670   0.0000000   2.7928460   2.7928460   2.7928460   0.8218740
 AtZNuc=   9.0000000   6.0000000   1.0000000   1.0000000   1.0000000  17.0000000
 Leave Link  101 at Fri Sep 22 13:46:43 2017, MaxMem=    33554432 cpu:         0.3
 (Enter /home/unamur/ucpts/pbeaujea/gaussian//g09/l103.exe)

 GradGradGradGradGradGradGradGradGradGradGradGradGradGradGradGradGradGrad
 Berny optimization.
 Initialization pass.
                           ----------------------------
                           !    Initial Parameters    !
                           ! (Angstroms and Degrees)  !
 --------------------------                            --------------------------
 ! Name  Definition        TS        Reactant  Product Derivative Info.         !
 --------------------------------------------------------------------------------
 ! R1    R(1,2)             1.38      1.3983    2.5849 estimate D2E/DX2         !
 ! R2    R(1,3)             2.0386    2.016     2.4917 estimate D2E/DX2         !
 ! R3    R(1,4)             2.0386    2.016     2.4916 estimate D2E/DX2         !
 ! R4    R(1,5)             2.0386    2.016     2.4907 estimate D2E/DX2         !
 ! R5    R(2,3)             1.1094    1.0768    1.07   estimate D2E/DX2         !
 ! R6    R(2,4)             1.1094    1.0768    1.0701 estimate D2E/DX2         !
 ! R7    R(2,5)             1.1094    1.0768    1.0701 estimate D2E/DX2         !
 ! R8    R(2,6)             1.5       3.4228    1.8629 estimate D2E/DX2         !
 ! R9    R(3,6)             1.5399    3.2481    2.4047 estimate D2E/DX2         !
 ! R10   R(4,6)             1.5399    3.2481    2.4047 estimate D2E/DX2         !
 ! R11   R(5,6)             1.5399    3.2481    2.4048 estimate D2E/DX2         !
 ! A1    A(3,1,4)          52.7623   52.0723   41.6639 estimate D2E/DX2         !
 ! A2    A(3,1,5)          52.7625   52.0723   41.6697 estimate D2E/DX2         !
 ! A3    A(4,1,5)          52.7627   52.0723   41.6709 estimate D2E/DX2         !
 ! A4    A(1,2,3)         109.4707  108.3835   72.9909 estimate D2E/DX2         !
 ! A5    A(1,2,4)         109.4707  108.3835   72.9897 estimate D2E/DX2         !
 ! A6    A(1,2,5)         109.4706  108.3835   72.9419 estimate D2E/DX2         !
 ! A7    L(1,2,6,3,-1)    180.0     179.9999  180.0138 estimate D2E/DX2         !
 ! A8    L(1,2,6,3,-2)    180.0     180.0     179.975  estimate D2E/DX2         !
 ! A9    A(3,2,4)         109.4715  110.5367  111.806  estimate D2E/DX2         !
 ! A10   A(3,2,5)         109.4717  110.5367  111.7985 estimate D2E/DX2         !
 ! A11   A(3,2,6)          70.5293   71.6164  107.0229 estimate D2E/DX2         !
 ! A12   A(4,2,5)         109.4721  110.5367  111.8014 estimate D2E/DX2         !
 ! A13   A(4,2,6)          70.5293   71.6166  107.0241 estimate D2E/DX2         !
 ! A14   A(5,2,6)          70.5294   71.6166  107.0304 estimate D2E/DX2         !
 ! A15   A(2,3,6)          66.6881   90.0478   47.7954 estimate D2E/DX2         !
 ! A16   A(2,4,6)          66.6878   90.0477   47.7943 estimate D2E/DX2         !
 ! A17   A(2,5,6)          66.6877   90.0477   47.7899 estimate D2E/DX2         !
 ! A18   A(3,6,4)          72.0617   31.6188   43.2449 estimate D2E/DX2         !
 ! A19   A(3,6,5)          72.0619   31.6188   43.2421 estimate D2E/DX2         !
 ! A20   A(4,6,5)          72.0622   31.6188   43.2429 estimate D2E/DX2         !
 ! D1    D(3,1,5,4)       -67.8521  -67.6244  -64.675  estimate D2E/DX2         !
 ! D2    D(1,2,3,6)       180.0    -180.0     179.975  estimate D2E/DX2         !
 ! D3    D(4,2,3,6)       -60.0008  -61.3546 -116.8902 estimate D2E/DX2         !
 ! D4    D(5,2,3,6)        60.0007   61.3547  116.8937 estimate D2E/DX2         !
 ! D5    D(1,2,4,6)       180.0     179.9999 -179.975  estimate D2E/DX2         !
 ! D6    D(3,2,4,6)        60.0008   61.3545  116.8894 estimate D2E/DX2         !
 ! D7    D(5,2,4,6)       -60.0005  -61.3547 -116.896  estimate D2E/DX2         !
 ! D8    D(1,2,5,6)       180.0    -179.9999  180.0    estimate D2E/DX2         !
 ! D9    D(3,2,5,4)      -120.0011 -122.7092  126.2186 estimate D2E/DX2         !
 ! D10   D(3,2,5,6)       -60.0007  -61.3545 -116.8892 estimate D2E/DX2         !
 ! D11   D(4,2,5,6)        60.0005   61.3547  116.8922 estimate D2E/DX2         !
 ! D12   D(3,2,6,4)      -119.9996 -120.0    -120.0023 estimate D2E/DX2         !
 ! D13   D(3,2,6,5)       119.9999  120.0     119.9969 estimate D2E/DX2         !
 ! D14   D(4,2,6,5)      -120.0004 -119.9999 -120.0009 estimate D2E/DX2         !
 ! D15   D(2,3,6,4)        38.1907   31.3092   32.5358 estimate D2E/DX2         !
 ! D16   D(2,3,6,5)       -38.1905  -31.3092  -32.5372 estimate D2E/DX2         !
 ! D17   D(2,4,6,3)       -38.1905  -31.3092  -32.5361 estimate D2E/DX2         !
 ! D18   D(2,4,6,5)        38.1903   31.3093   32.5352 estimate D2E/DX2         !
 ! D19   D(2,5,6,3)        38.1904   31.3092   32.54   estimate D2E/DX2         !
 ! D20   D(2,5,6,4)       -38.1902  -31.3093  -32.5377 estimate D2E/DX2         !
 --------------------------------------------------------------------------------
 Trust Radius=3.00D-01 FncErr=1.00D-07 GrdErr=1.00D-07
 Number of steps in this run=     61 maximum allowed number of steps=    100.
 Search for a saddle point of order  1.
 GradGradGradGradGradGradGradGradGradGradGradGradGradGradGradGradGradGrad

 Leave Link  103 at Fri Sep 22 13:46:43 2017, MaxMem=    33554432 cpu:         0.0
 (Enter /home/unamur/ucpts/pbeaujea/gaussian//g09/l202.exe)
                          Input orientation:                          
 ---------------------------------------------------------------------
 Center     Atomic      Atomic             Coordinates (Angstroms)
 Number     Number       Type             X           Y           Z
 ---------------------------------------------------------------------
      1          9           0        0.000000    0.000000    1.380000
      2          6           0        0.000000    0.000000    0.000000
      3          1           0       -0.560490    0.883100   -0.369790
      4          1           0       -0.484550   -0.926950   -0.369790
      5          1           0        1.045040    0.043850   -0.369790
      6         17           0        0.000000    0.000000   -1.500000
 ---------------------------------------------------------------------
                    Distance matrix (angstroms):
                    1          2          3          4          5
     1  F    0.000000
     2  C    1.380000   0.000000
     3  H    2.038573   1.109396   0.000000
     4  H    2.038575   1.109401   1.811642   0.000000
     5  H    2.038577   1.109403   1.811648   1.811656   0.000000
     6  Cl   2.880000   1.500000   1.539932   1.539935   1.539937
                    6
     6  Cl   0.000000
 This structure is nearly, but not quite of a higher symmetry.
 Consider Symm=Loose if the higher symmetry is desired.
 Stoichiometry    CH3ClF(1-)
 Framework group  C1[X(CH3ClF)]
 Deg. of freedom    12
 Full point group                 C1      NOp   1
 Largest Abelian subgroup         C1      NOp   1
 Largest concise Abelian subgroup C1      NOp   1
                         Standard orientation:                         
 ---------------------------------------------------------------------
 Center     Atomic      Atomic             Coordinates (Angstroms)
 Number     Number       Type             X           Y           Z
 ---------------------------------------------------------------------
      1          9           0       -1.785411    0.000000    0.000000
      2          6           0       -0.405411    0.000000    0.000000
      3          1           0       -0.035621   -0.842558   -0.619767
      4          1           0       -0.035621   -0.115462    1.039564
      5          1           0       -0.035621    0.958020   -0.419797
      6         17           0        1.094589    0.000000    0.000000
 ---------------------------------------------------------------------
 Rotational constants (GHZ):    152.7861793      4.7640132      4.7640119
 Leave Link  202 at Fri Sep 22 13:46:43 2017, MaxMem=    33554432 cpu:         0.0
 (Enter /home/unamur/ucpts/pbeaujea/gaussian//g09/l301.exe)
 Standard basis: 6-31+G(d) (6D, 7F)
 Ernie: Thresh=  0.10000D-02 Tol=  0.10000D-05 Strict=F.
 There are    67 symmetry adapted cartesian basis functions of A   symmetry.
 There are    67 symmetry adapted basis functions of A   symmetry.
    67 basis functions,   132 primitive gaussians,    67 cartesian basis functions
    18 alpha electrons       18 beta electrons
       nuclear repulsion energy       118.7998639492 Hartrees.
 IExCor=    0 DFT=F Ex=HF Corr=None ExCW=0 ScaHFX=  1.000000
 ScaDFX=  1.000000  1.000000  1.000000  1.000000 ScalE2=  1.000000  1.000000
 IRadAn=      0 IRanWt=     -1 IRanGd=            0 ICorTp=0 IEmpDi=  4
 NAtoms=    6 NActive=    6 NUniq=    6 SFac= 1.00D+00 NAtFMM=   60 NAOKFM=F Big=F
 Integral buffers will be    131072 words long.
 Raffenetti 1 integral format.
 Two-electron integral symmetry is turned on.
 Leave Link  301 at Fri Sep 22 13:46:43 2017, MaxMem=    33554432 cpu:         0.1
 (Enter /home/unamur/ucpts/pbeaujea/gaussian//g09/l302.exe)
 NPDir=0 NMtPBC=     1 NCelOv=     1 NCel=       1 NClECP=     1 NCelD=      1
         NCelK=      1 NCelE2=     1 NClLst=     1 CellRange=     0.0.
 One-electron integrals computed using PRISM.
 NBasis=    67 RedAO= T EigKep=  4.42D-04  NBF=    67
 NBsUse=    67 1.00D-06 EigRej= -1.00D+00 NBFU=    67
 Leave Link  302 at Fri Sep 22 13:46:43 2017, MaxMem=    33554432 cpu:         0.3
 (Enter /home/unamur/ucpts/pbeaujea/gaussian//g09/l303.exe)
 DipDrv:  MaxL=1.
 Leave Link  303 at Fri Sep 22 13:46:43 2017, MaxMem=    33554432 cpu:         0.1
 (Enter /home/unamur/ucpts/pbeaujea/gaussian//g09/l401.exe)
 ExpMin= 4.38D-02 ExpMax= 2.52D+04 ExpMxC= 3.78D+03 IAcc=2 IRadAn=         4 AccDes= 0.00D+00
 Harris functional with IExCor=  205 and IRadAn=       4 diagonalized for initial guess.
 HarFok:  IExCor=  205 AccDes= 0.00D+00 IRadAn=         4 IDoV= 1 UseB2=F ITyADJ=14
 ICtDFT=  3500011 ScaDFX=  1.000000  1.000000  1.000000  1.000000
 FoFCou: FMM=F IPFlag=           0 FMFlag=      100000 FMFlg1=           0
         NFxFlg=           0 DoJE=T BraDBF=F KetDBF=T FulRan=T
         wScrn=  0.000000 ICntrl=     500 IOpCl=  0 I1Cent=   200000004 NGrid=           0
         NMat0=    1 NMatS0=      1 NMatT0=    0 NMatD0=    1 NMtDS0=    0 NMtDT0=    0
 Petite list used in FoFCou.
 Harris En= -597.927790004801    
 JPrj=0 DoOrth=F DoCkMO=F.
 Leave Link  401 at Fri Sep 22 13:46:44 2017, MaxMem=    33554432 cpu:         0.6
 (Enter /home/unamur/ucpts/pbeaujea/gaussian//g09/l502.exe)
 Closed shell SCF:
 Using DIIS extrapolation, IDIIS=  1040.
 Integral symmetry usage will be decided dynamically.
 Keep R1 ints in memory in canonical form, NReq=3474159.
 IVT=       32922 IEndB=       32922 NGot=    33554432 MDV=    30925730
 LenX=    30925730 LenY=    30920800
 Requested convergence on RMS density matrix=1.00D-08 within 128 cycles.
 Requested convergence on MAX density matrix=1.00D-06.
 Requested convergence on             energy=1.00D-06.
 No special actions if energy rises.
 FoFCou: FMM=F IPFlag=           0 FMFlag=           0 FMFlg1=           0
         NFxFlg=           0 DoJE=F BraDBF=F KetDBF=F FulRan=T
         wScrn=  0.000000 ICntrl=     600 IOpCl=  0 I1Cent=           0 NGrid=           0
         NMat0=    1 NMatS0=   2278 NMatT0=    0 NMatD0=    1 NMtDS0=    0 NMtDT0=    0
 Symmetry not used in FoFCou.

 Cycle   1  Pass 1  IDiag  1:
 E= -597.837262632394    
 DIIS: error= 1.03D-01 at cycle   1 NSaved=   1.
 NSaved= 1 IEnMin= 1 EnMin= -597.837262632394     IErMin= 1 ErrMin= 1.03D-01
 ErrMax= 1.03D-01  0.00D+00 EMaxC= 1.00D-01 BMatC= 3.14D-01 BMatP= 3.14D-01
 IDIUse=3 WtCom= 0.00D+00 WtEn= 1.00D+00
 Coeff-Com:  0.100D+01
 Coeff-En:   0.100D+01
 Coeff:      0.100D+01
 Gap=     0.343 Goal=   None    Shift=    0.000
 GapD=    0.343 DampG=1.000 DampE=0.250 DampFc=0.2500 IDamp=-1.
 Damping current iteration by 2.50D-01
 RMSDP=8.10D-02 MaxDP=2.84D+00              OVMax= 2.75D-01

 Cycle   2  Pass 1  IDiag  1:
 E= -597.897976262338     Delta-E=       -0.060713629944 Rises=F Damp=T
 DIIS: error= 7.90D-02 at cycle   2 NSaved=   2.
 NSaved= 2 IEnMin= 2 EnMin= -597.897976262338     IErMin= 2 ErrMin= 7.90D-02
 ErrMax= 7.90D-02  0.00D+00 EMaxC= 1.00D-01 BMatC= 1.44D-01 BMatP= 3.14D-01
 IDIUse=3 WtCom= 2.10D-01 WtEn= 7.90D-01
 Coeff-Com: -0.168D+01 0.268D+01
 Coeff-En:   0.000D+00 0.100D+01
 Coeff:     -0.353D+00 0.135D+01
 Gap=     0.248 Goal=   None    Shift=    0.000
 RMSDP=3.13D-02 MaxDP=9.99D-01 DE=-6.07D-02 OVMax= 6.37D-02

 Cycle   3  Pass 1  IDiag  1:
 E= -598.015327136678     Delta-E=       -0.117350874340 Rises=F Damp=F
 DIIS: error= 1.38D-02 at cycle   3 NSaved=   3.
 NSaved= 3 IEnMin= 3 EnMin= -598.015327136678     IErMin= 3 ErrMin= 1.38D-02
 ErrMax= 1.38D-02  0.00D+00 EMaxC= 1.00D-01 BMatC= 1.67D-02 BMatP= 1.44D-01
 IDIUse=3 WtCom= 8.62D-01 WtEn= 1.38D-01
 Coeff-Com:  0.193D+01-0.259D+01 0.166D+01
 Coeff-En:   0.000D+00 0.000D+00 0.100D+01
 Coeff:      0.167D+01-0.223D+01 0.157D+01
 Gap=     0.304 Goal=   None    Shift=    0.000
 RMSDP=1.28D-02 MaxDP=4.47D-01 DE=-1.17D-01 OVMax= 3.54D-02

 Cycle   4  Pass 1  IDiag  1:
 E= -598.028700263427     Delta-E=       -0.013373126749 Rises=F Damp=F
 DIIS: error= 1.89D-03 at cycle   4 NSaved=   4.
 NSaved= 4 IEnMin= 4 EnMin= -598.028700263427     IErMin= 4 ErrMin= 1.89D-03
 ErrMax= 1.89D-03  0.00D+00 EMaxC= 1.00D-01 BMatC= 2.45D-04 BMatP= 1.67D-02
 IDIUse=3 WtCom= 9.81D-01 WtEn= 1.89D-02
 Coeff-Com:  0.999D-01-0.142D+00 0.146D+00 0.896D+00
 Coeff-En:   0.000D+00 0.000D+00 0.000D+00 0.100D+01
 Coeff:      0.980D-01-0.139D+00 0.143D+00 0.898D+00
 Gap=     0.298 Goal=   None    Shift=    0.000
 RMSDP=3.39D-03 MaxDP=1.26D-01 DE=-1.34D-02 OVMax= 9.79D-03

 Cycle   5  Pass 1  IDiag  1:
 E= -598.029029831974     Delta-E=       -0.000329568547 Rises=F Damp=F
 DIIS: error= 1.04D-03 at cycle   5 NSaved=   5.
 NSaved= 5 IEnMin= 5 EnMin= -598.029029831974     IErMin= 5 ErrMin= 1.04D-03
 ErrMax= 1.04D-03  0.00D+00 EMaxC= 1.00D-01 BMatC= 4.04D-05 BMatP= 2.45D-04
 IDIUse=3 WtCom= 9.90D-01 WtEn= 1.04D-02
 Coeff-Com: -0.104D+00 0.138D+00-0.779D-01 0.249D+00 0.794D+00
 Coeff-En:   0.000D+00 0.000D+00 0.000D+00 0.000D+00 0.100D+01
 Coeff:     -0.102D+00 0.137D+00-0.771D-01 0.247D+00 0.796D+00
 Gap=     0.299 Goal=   None    Shift=    0.000
 RMSDP=8.15D-04 MaxDP=3.14D-02 DE=-3.30D-04 OVMax= 3.57D-03

 Cycle   6  Pass 1  IDiag  1:
 E= -598.029087527918     Delta-E=       -0.000057695944 Rises=F Damp=F
 DIIS: error= 3.41D-04 at cycle   6 NSaved=   6.
 NSaved= 6 IEnMin= 6 EnMin= -598.029087527918     IErMin= 6 ErrMin= 3.41D-04
 ErrMax= 3.41D-04  0.00D+00 EMaxC= 1.00D-01 BMatC= 5.05D-06 BMatP= 4.04D-05
 IDIUse=3 WtCom= 9.97D-01 WtEn= 3.41D-03
 Coeff-Com:  0.301D-01-0.390D-01 0.121D-02-0.201D+00-0.305D+00 0.151D+01
 Coeff-En:   0.000D+00 0.000D+00 0.000D+00 0.000D+00 0.000D+00 0.100D+01
 Coeff:      0.300D-01-0.389D-01 0.120D-02-0.200D+00-0.304D+00 0.151D+01
 Gap=     0.298 Goal=   None    Shift=    0.000
 RMSDP=1.16D-03 MaxDP=4.51D-02 DE=-5.77D-05 OVMax= 4.46D-03

 Cycle   7  Pass 1  IDiag  1:
 E= -598.029108813720     Delta-E=       -0.000021285802 Rises=F Damp=F
 DIIS: error= 8.66D-05 at cycle   7 NSaved=   7.
 NSaved= 7 IEnMin= 7 EnMin= -598.029108813720     IErMin= 7 ErrMin= 8.66D-05
 ErrMax= 8.66D-05  0.00D+00 EMaxC= 1.00D-01 BMatC= 4.70D-07 BMatP= 5.05D-06
 IDIUse=1 WtCom= 1.00D+00 WtEn= 0.00D+00
 Coeff-Com:  0.148D-01-0.195D-01 0.694D-02-0.426D-01-0.789D-01 0.165D+00
 Coeff-Com:  0.954D+00
 Coeff:      0.148D-01-0.195D-01 0.694D-02-0.426D-01-0.789D-01 0.165D+00
 Coeff:      0.954D+00
 Gap=     0.298 Goal=   None    Shift=    0.000
 RMSDP=2.27D-04 MaxDP=8.85D-03 DE=-2.13D-05 OVMax= 9.66D-04

 Cycle   8  Pass 1  IDiag  1:
 E= -598.029110354138     Delta-E=       -0.000001540418 Rises=F Damp=F
 DIIS: error= 3.97D-05 at cycle   8 NSaved=   8.
 NSaved= 8 IEnMin= 8 EnMin= -598.029110354138     IErMin= 8 ErrMin= 3.97D-05
 ErrMax= 3.97D-05  0.00D+00 EMaxC= 1.00D-01 BMatC= 7.61D-08 BMatP= 4.70D-07
 IDIUse=1 WtCom= 1.00D+00 WtEn= 0.00D+00
 Coeff-Com:  0.150D-03-0.332D-03 0.368D-02 0.326D-01 0.576D-01-0.288D+00
 Coeff-Com: -0.122D+00 0.132D+01
 Coeff:      0.150D-03-0.332D-03 0.368D-02 0.326D-01 0.576D-01-0.288D+00
 Coeff:     -0.122D+00 0.132D+01
 Gap=     0.298 Goal=   None    Shift=    0.000
 RMSDP=1.98D-04 MaxDP=7.72D-03 DE=-1.54D-06 OVMax= 7.61D-04

 Cycle   9  Pass 1  IDiag  1:
 E= -598.029110764561     Delta-E=       -0.000000410423 Rises=F Damp=F
 DIIS: error= 7.77D-06 at cycle   9 NSaved=   9.
 NSaved= 9 IEnMin= 9 EnMin= -598.029110764561     IErMin= 9 ErrMin= 7.77D-06
 ErrMax= 7.77D-06  0.00D+00 EMaxC= 1.00D-01 BMatC= 3.02D-09 BMatP= 7.61D-08
 IDIUse=1 WtCom= 1.00D+00 WtEn= 0.00D+00
 Coeff-Com: -0.836D-04 0.138D-03-0.117D-02-0.968D-02-0.163D-01 0.908D-01
 Coeff-Com: -0.324D-01-0.414D+00 0.138D+01
 Coeff:     -0.836D-04 0.138D-03-0.117D-02-0.968D-02-0.163D-01 0.908D-01
 Coeff:     -0.324D-01-0.414D+00 0.138D+01
 Gap=     0.298 Goal=   None    Shift=    0.000
 RMSDP=4.85D-05 MaxDP=1.87D-03 DE=-4.10D-07 OVMax= 1.59D-04

 Cycle  10  Pass 1  IDiag  1:
 E= -598.029110782194     Delta-E=       -0.000000017633 Rises=F Damp=F
 DIIS: error= 9.91D-07 at cycle  10 NSaved=  10.
 NSaved=10 IEnMin=10 EnMin= -598.029110782194     IErMin=10 ErrMin= 9.91D-07
 ErrMax= 9.91D-07  0.00D+00 EMaxC= 1.00D-01 BMatC= 9.38D-11 BMatP= 3.02D-09
 IDIUse=1 WtCom= 1.00D+00 WtEn= 0.00D+00
 Coeff-Com:  0.730D-06 0.518D-05-0.585D-04-0.399D-03-0.908D-04 0.239D-02
 Coeff-Com:  0.358D-02-0.294D-02-0.157D+00 0.115D+01
 Coeff:      0.730D-06 0.518D-05-0.585D-04-0.399D-03-0.908D-04 0.239D-02
 Coeff:      0.358D-02-0.294D-02-0.157D+00 0.115D+01
 Gap=     0.298 Goal=   None    Shift=    0.000
 RMSDP=6.00D-06 MaxDP=2.30D-04 DE=-1.76D-08 OVMax= 1.80D-05

 Cycle  11  Pass 1  IDiag  1:
 E= -598.029110782555     Delta-E=       -0.000000000361 Rises=F Damp=F
 DIIS: error= 3.33D-07 at cycle  11 NSaved=  11.
 NSaved=11 IEnMin=11 EnMin= -598.029110782555     IErMin=11 ErrMin= 3.33D-07
 ErrMax= 3.33D-07  0.00D+00 EMaxC= 1.00D-01 BMatC= 5.42D-12 BMatP= 9.38D-11
 IDIUse=1 WtCom= 1.00D+00 WtEn= 0.00D+00
 Coeff-Com: -0.191D-04 0.241D-04 0.478D-04 0.513D-03 0.879D-03-0.502D-02
 Coeff-Com: -0.111D-03 0.239D-01-0.551D-01-0.149D+00 0.118D+01
 Coeff:     -0.191D-04 0.241D-04 0.478D-04 0.513D-03 0.879D-03-0.502D-02
 Coeff:     -0.111D-03 0.239D-01-0.551D-01-0.149D+00 0.118D+01
 Gap=     0.298 Goal=   None    Shift=    0.000
 RMSDP=1.41D-06 MaxDP=5.36D-05 DE=-3.61D-10 OVMax= 4.69D-06

 Cycle  12  Pass 1  IDiag  1:
 E= -598.029110782577     Delta-E=       -0.000000000022 Rises=F Damp=F
 DIIS: error= 7.78D-08 at cycle  12 NSaved=  12.
 NSaved=12 IEnMin=12 EnMin= -598.029110782577     IErMin=12 ErrMin= 7.78D-08
 ErrMax= 7.78D-08  0.00D+00 EMaxC= 1.00D-01 BMatC= 2.59D-13 BMatP= 5.42D-12
 IDIUse=1 WtCom= 1.00D+00 WtEn= 0.00D+00
 Coeff-Com: -0.157D-05 0.211D-05-0.958D-05-0.769D-04-0.173D-03 0.905D-03
 Coeff-Com:  0.487D-05-0.469D-02 0.173D-01-0.951D-02-0.266D+00 0.126D+01
 Coeff:     -0.157D-05 0.211D-05-0.958D-05-0.769D-04-0.173D-03 0.905D-03
 Coeff:      0.487D-05-0.469D-02 0.173D-01-0.951D-02-0.266D+00 0.126D+01
 Gap=     0.298 Goal=   None    Shift=    0.000
 RMSDP=1.01D-07 MaxDP=2.03D-06 DE=-2.18D-11 OVMax= 7.28D-07

 Cycle  13  Pass 1  IDiag  1:
 E= -598.029110782578     Delta-E=       -0.000000000001 Rises=F Damp=F
 DIIS: error= 1.56D-08 at cycle  13 NSaved=  13.
 NSaved=13 IEnMin=13 EnMin= -598.029110782578     IErMin=13 ErrMin= 1.56D-08
 ErrMax= 1.56D-08  0.00D+00 EMaxC= 1.00D-01 BMatC= 1.24D-14 BMatP= 2.59D-13
 IDIUse=1 WtCom= 1.00D+00 WtEn= 0.00D+00
 Coeff-Com:  0.694D-06-0.870D-06-0.891D-06-0.810D-05-0.682D-05 0.570D-04
 Coeff-Com:  0.391D-05-0.239D-03-0.488D-03 0.763D-02-0.102D-01-0.260D+00
 Coeff-Com:  0.126D+01
 Coeff:      0.694D-06-0.870D-06-0.891D-06-0.810D-05-0.682D-05 0.570D-04
 Coeff:      0.391D-05-0.239D-03-0.488D-03 0.763D-02-0.102D-01-0.260D+00
 Coeff:      0.126D+01
 Gap=     0.298 Goal=   None    Shift=    0.000
 RMSDP=6.54D-08 MaxDP=1.97D-06 DE=-1.36D-12 OVMax= 2.48D-07

 Cycle  14  Pass 1  IDiag  1:
 E= -598.029110782574     Delta-E=        0.000000000004 Rises=F Damp=F
 DIIS: error= 2.81D-09 at cycle  14 NSaved=  14.
 NSaved=14 IEnMin=13 EnMin= -598.029110782578     IErMin=14 ErrMin= 2.81D-09
 ErrMax= 2.81D-09  0.00D+00 EMaxC= 1.00D-01 BMatC= 4.31D-16 BMatP= 1.24D-14
 IDIUse=1 WtCom= 1.00D+00 WtEn= 0.00D+00
 Coeff-Com:  0.163D-06-0.220D-06 0.452D-06 0.255D-05 0.435D-05-0.267D-04
 Coeff-Com: -0.589D-05 0.153D-03-0.369D-03-0.119D-02 0.116D-01 0.175D-02
 Coeff-Com: -0.254D+00 0.124D+01
 Coeff:      0.163D-06-0.220D-06 0.452D-06 0.255D-05 0.435D-05-0.267D-04
 Coeff:     -0.589D-05 0.153D-03-0.369D-03-0.119D-02 0.116D-01 0.175D-02
 Coeff:     -0.254D+00 0.124D+01
 Gap=     0.298 Goal=   None    Shift=    0.000
 RMSDP=2.74D-08 MaxDP=8.74D-07 DE= 4.43D-12 OVMax= 5.72D-08

 Cycle  15  Pass 1  IDiag  1:
 E= -598.029110782575     Delta-E=       -0.000000000001 Rises=F Damp=F
 DIIS: error= 5.68D-10 at cycle  15 NSaved=  15.
 NSaved=15 IEnMin=13 EnMin= -598.029110782578     IErMin=15 ErrMin= 5.68D-10
 ErrMax= 5.68D-10  0.00D+00 EMaxC= 1.00D-01 BMatC= 2.45D-17 BMatP= 4.31D-16
 IDIUse=1 WtCom= 1.00D+00 WtEn= 0.00D+00
 Coeff-Com:  0.478D-07-0.645D-07-0.779D-07-0.962D-06-0.209D-05 0.102D-04
 Coeff-Com:  0.170D-05-0.577D-04 0.172D-03 0.176D-03-0.407D-02 0.488D-02
 Coeff-Com:  0.682D-01-0.532D+00 0.146D+01
 Coeff:      0.478D-07-0.645D-07-0.779D-07-0.962D-06-0.209D-05 0.102D-04
 Coeff:      0.170D-05-0.577D-04 0.172D-03 0.176D-03-0.407D-02 0.488D-02
 Coeff:      0.682D-01-0.532D+00 0.146D+01
 Gap=     0.298 Goal=   None    Shift=    0.000
 RMSDP=1.17D-08 MaxDP=3.93D-07 DE=-1.48D-12 OVMax= 1.73D-08

 Cycle  16  Pass 1  IDiag  1:
 E= -598.029110782576     Delta-E=       -0.000000000001 Rises=F Damp=F
 DIIS: error= 1.08D-10 at cycle  16 NSaved=  16.
 NSaved=16 IEnMin=13 EnMin= -598.029110782578     IErMin=16 ErrMin= 1.08D-10
 ErrMax= 1.08D-10  0.00D+00 EMaxC= 1.00D-01 BMatC= 8.27D-19 BMatP= 2.45D-17
 IDIUse=1 WtCom= 1.00D+00 WtEn= 0.00D+00
 Large coefficients: NSaved= 16 BigCof=    0.00 CofMax=   10.00 Det=-1.08D-18
 Inversion failed.  Reducing to 15 matrices.
 Coeff-Com:  0.420D-09 0.256D-07 0.239D-06 0.556D-06-0.267D-05-0.546D-06
 Coeff-Com:  0.155D-04-0.509D-04-0.220D-04 0.117D-02-0.237D-02-0.153D-01
 Coeff-Com:  0.155D+00-0.548D+00 0.141D+01
 Coeff:      0.420D-09 0.256D-07 0.239D-06 0.556D-06-0.267D-05-0.546D-06
 Coeff:      0.155D-04-0.509D-04-0.220D-04 0.117D-02-0.237D-02-0.153D-01
 Coeff:      0.155D+00-0.548D+00 0.141D+01
 Gap=     0.298 Goal=   None    Shift=    0.000
 RMSDP=1.47D-09 MaxDP=5.08D-08 DE=-7.96D-13 OVMax= 2.22D-09

 SCF Done:  E(RHF) =   -598.02911078257600000000 A.U. after   16 cycles
            NFock= 16  Conv=0.15D-08     -V/T= 1.9968
 KE= 5.999628272846D+02 PE=-1.670908127498D+03 EE= 3.541163254821D+02
 Leave Link  502 at Fri Sep 22 13:46:44 2017, MaxMem=    33554432 cpu:         0.9
 (Enter /home/unamur/ucpts/pbeaujea/gaussian//g09/l601.exe)
 Copying SCF densities to generalized density rwf, IOpCl= 0 IROHF=0.

 **********************************************************************

            Population analysis using the SCF density.

 **********************************************************************

 Orbital symmetries:
       Occupied  (A) (A) (A) (A) (A) (A) (A) (A) (A) (A) (A) (A)
                 (A) (A) (A) (A) (A) (A)
       Virtual   (A) (A) (A) (A) (A) (A) (A) (A) (A) (A) (A) (A)
                 (A) (A) (A) (A) (A) (A) (A) (A) (A) (A) (A) (A)
                 (A) (A) (A) (A) (A) (A) (A) (A) (A) (A) (A) (A)
                 (A) (A) (A) (A) (A) (A) (A) (A) (A) (A) (A) (A)
                 (A)
 The electronic state is 1-A.
 Alpha  occ. eigenvalues -- -104.58275 -26.03685 -11.10942 -10.33714  -7.80555
 Alpha  occ. eigenvalues --   -7.79994  -7.79994  -1.35419  -1.12488  -0.65134
 Alpha  occ. eigenvalues --   -0.55273  -0.55273  -0.49659  -0.39185  -0.39185
 Alpha  occ. eigenvalues --   -0.15038  -0.15038  -0.06782
 Alpha virt. eigenvalues --    0.23026   0.26087   0.26087   0.27183   0.29020
 Alpha virt. eigenvalues --    0.30906   0.30906   0.40038   0.48964   0.48964
 Alpha virt. eigenvalues --    0.53127   0.58726   0.60268   0.60268   0.66689
 Alpha virt. eigenvalues --    0.74213   0.95768   0.95769   1.05099   1.05099
 Alpha virt. eigenvalues --    1.07262   1.09592   1.22075   1.22075   1.34422
 Alpha virt. eigenvalues --    1.37044   1.37044   1.44589   1.44589   1.50630
 Alpha virt. eigenvalues --    1.84577   1.86463   2.05584   2.05584   2.19214
 Alpha virt. eigenvalues --    2.19214   2.21224   2.34769   2.34769   2.58174
 Alpha virt. eigenvalues --    2.72499   2.72500   3.04322   3.04322   3.05712
 Alpha virt. eigenvalues --    3.89544   4.95256   5.22660   6.14498
          Condensed to atoms (all electrons):
               1          2          3          4          5          6
     1  F   10.540941  -1.470591  -0.232439  -0.232440  -0.232440   0.863488
     2  C   -1.470591  10.002405   1.106725   1.106730   1.106733  -4.060831
     3  H   -0.232439   1.106725   0.873051   0.024189   0.024190  -0.876261
     4  H   -0.232440   1.106730   0.024189   0.873054   0.024191  -0.876266
     5  H   -0.232440   1.106733   0.024190   0.024191   0.873056  -0.876269
     6  Cl   0.863488  -4.060831  -0.876261  -0.876266  -0.876269  22.040075
 Mulliken charges:
               1
     1  F   -0.236519
     2  C   -1.791171
     3  H    0.080544
     4  H    0.080542
     5  H    0.080540
     6  Cl   0.786065
 Sum of Mulliken charges =  -1.00000
 Mulliken charges with hydrogens summed into heavy atoms:
               1
     1  F   -0.236519
     2  C   -1.549545
     6  Cl   0.786065
 Electronic spatial extent (au):  <R**2>=            271.2431
 Charge=             -1.0000 electrons
 Dipole moment (field-independent basis, Debye):
    X=              1.2122    Y=              0.0000    Z=              0.0000  Tot=              1.2122
 Quadrupole moment (field-independent basis, Debye-Ang):
   XX=            -44.6691   YY=            -32.0052   ZZ=            -32.0051
   XY=              0.0000   XZ=              0.0000   YZ=              0.0000
 Traceless Quadrupole moment (field-independent basis, Debye-Ang):
   XX=             -8.4426   YY=              4.2213   ZZ=              4.2213
   XY=              0.0000   XZ=              0.0000   YZ=              0.0000
 Octapole moment (field-independent basis, Debye-Ang**2):
  XXX=             -2.8904  YYY=             -0.0695  ZZZ=             -0.2014  XYY=             -3.3743
  XXY=              0.0000  XXZ=              0.0000  XZZ=             -3.3743  YZZ=              0.0694
  YYZ=              0.2014  XYZ=              0.0000
 Hexadecapole moment (field-independent basis, Debye-Ang**3):
 XXXX=           -315.4147 YYYY=            -67.1297 ZZZZ=            -67.1296 XXXY=              0.0000
 XXXZ=              0.0000 YYYX=              0.2525 YYYZ=              0.0001 ZZZX=              0.7327
 ZZZY=              0.0001 XXYY=            -60.4592 XXZZ=            -60.4592 YYZZ=            -22.3766
 XXYZ=              0.0000 YYXZ=             -0.7327 ZZXY=             -0.2524
 N-N= 1.187998639492D+02 E-N=-1.670908127500D+03  KE= 5.999628272846D+02
 No NMR shielding tensors so no spin-rotation constants.
 Leave Link  601 at Fri Sep 22 13:46:44 2017, MaxMem=    33554432 cpu:         0.3
 (Enter /home/unamur/ucpts/pbeaujea/gaussian//g09/l701.exe)
 Compute integral first derivatives.
 ... and contract with generalized density number  0.
 Leave Link  701 at Fri Sep 22 13:46:45 2017, MaxMem=    33554432 cpu:         0.3
 (Enter /home/unamur/ucpts/pbeaujea/gaussian//g09/l702.exe)
 L702 exits ... SP integral derivatives will be done elsewhere.
 Leave Link  702 at Fri Sep 22 13:46:45 2017, MaxMem=    33554432 cpu:         0.0
 (Enter /home/unamur/ucpts/pbeaujea/gaussian//g09/l703.exe)
 Compute integral first derivatives, UseDBF=F ICtDFT=           0.
 Integral derivatives from FoFJK, PRISM(SPDF).
 Calling FoFJK, ICntrl=      2127 FMM=F ISym2X=0 I1Cent= 0 IOpClX= 0 NMat=1 NMatS=1 NMatT=0.
 FoFJK:  IHMeth= 1 ICntrl=    2127 DoSepK=F KAlg= 0 I1Cent=   0 FoldK=F
 IRaf=         0 NMat=   1 IRICut=       1 DoRegI=T DoRafI=F ISym2E= 0.
 FoFCou: FMM=F IPFlag=           0 FMFlag=      100000 FMFlg1=         800
         NFxFlg=           0 DoJE=F BraDBF=F KetDBF=F FulRan=T
         wScrn=  0.000000 ICntrl=    2127 IOpCl=  0 I1Cent=           0 NGrid=           0
         NMat0=    1 NMatS0=      1 NMatT0=    0 NMatD0=    1 NMtDS0=    0 NMtDT0=    0
 Symmetry not used in FoFCou.
 Leave Link  703 at Fri Sep 22 13:46:45 2017, MaxMem=    33554432 cpu:         1.1
 (Enter /home/unamur/ucpts/pbeaujea/gaussian//g09/l716.exe)
 Dipole        = 4.76914480D-01-6.21295713D-06-1.55503027D-06
 ***** Axes restored to original set *****
 -------------------------------------------------------------------
 Center     Atomic                   Forces (Hartrees/Bohr)
 Number     Number              X              Y              Z
 -------------------------------------------------------------------
      1        9           0.000000384   -0.000000272    0.122469140
      2        6           0.000001128   -0.000000799    0.141232627
      3        1          -0.030973966    0.048802355    0.135126533
      4        1          -0.026775931   -0.051223341    0.135126334
      5        1           0.057747209    0.002422890    0.135126210
      6       17           0.000001176   -0.000000833   -0.669080844
 -------------------------------------------------------------------
 Cartesian Forces:  Max     0.669080844 RMS     0.174390107
 Leave Link  716 at Fri Sep 22 13:46:45 2017, MaxMem=    33554432 cpu:         0.1
 (Enter /home/unamur/ucpts/pbeaujea/gaussian//g09/l103.exe)

 GradGradGradGradGradGradGradGradGradGradGradGradGradGradGradGradGradGrad
 Berny optimization.
 FormGI is forming the generalized inverse of G from B-inverse, IUseBI=4.
 Internal  Forces:  Max     0.198345384 RMS     0.053063195
 Search for a saddle point.
 Step number   1 out of a maximum of   61
 All quantities printed in internal units (Hartrees-Bohrs-Radians)
 Second derivative matrix not updated -- first step.
 ITU=  0
 LST/QST climbing along tangent vector
     Eigenvalues ---    0.05232   0.05417   0.05719   0.05874   0.09292
     Eigenvalues ---    0.11247   0.11556   0.21649   0.22674   0.23786
     Eigenvalues ---    0.27186   0.324041000.000001000.000001000.00000
     Eigenvalues --- 1000.000001000.000001000.000001000.000001000.00000
     Eigenvalues --- 1000.000001000.000001000.000001000.000001000.00000
     Eigenvalues --- 1000.000001000.000001000.000001000.000001000.00000
     Eigenvalues --- 1000.000001000.000001000.000001000.000001000.00000
     Eigenvalues --- 1000.000001000.000001000.000001000.000001000.00000
     Eigenvalues --- 1000.000001000.000001000.000001000.000001000.00000
     Eigenvalues --- 1000.000001000.000001000.000001000.000001000.00000
     Eigenvalues --- 1000.00000
 Eigenvectors required to have negative eigenvalues:
                          R4        D2        A8        D5        A6
   1                    0.32986   0.31617   0.31617  -0.29098   0.26552
                          D12       R3        D1        D3        D6
   1                   -0.25235  -0.20890  -0.19735   0.17793  -0.17348
 Eigenvalue     1 is   5.23D-02 should be less than     0.000000 Eigenvector:
                          R4        D2        A8        D5        A6
   1                    0.32986   0.31617   0.31617  -0.29098   0.26552
                          D12       R3        D1        D3        D6
   1                   -0.25235  -0.20890  -0.19735   0.17793  -0.17348
 QST in optimization variable space.
 Eigenvectors 1 and  11 swapped, overlap=  1.0000
                        Tangent   TS vect  // Eig F  Eigenval
   1         R1         0.48996   0.48996  -0.06114   0.27186
   2         R2         0.19140   0.19140  -0.00015   0.05417
   3         R3         0.19137   0.19137   0.00242   0.05719
   4         R4         0.19354   0.19354  -0.00004   0.05874
   5         R5        -0.06904  -0.06904  -0.03349   0.09292
   6         R6        -0.06902  -0.06902   0.00658   0.11247
   7         R7        -0.06656  -0.06656  -0.00017   0.11556
   8         R8        -0.35945  -0.35945  -0.00544   0.21649
   9         R9        -0.03557  -0.03557   0.00022   0.22674
  10         R10       -0.03557  -0.03557   0.08549   0.23786
  11         R11       -0.04178  -0.04178  -0.00126   0.05232
  12         A1        -0.03252  -0.03252   0.16265   0.32404
  13         A2        -0.03718  -0.03718   0.000001000.00000
  14         A3        -0.03717  -0.03717   0.000001000.00000
  15         A4        -0.13154  -0.13154   0.000001000.00000
  16         A5        -0.13157  -0.13157   0.000001000.00000
  17         A6        -0.13137  -0.13137   0.000001000.00000
  18         A7         0.00120   0.00120   0.000001000.00000
  19         A8        -0.00216  -0.00216   0.000001000.00000
  20         A9         0.14093   0.14093   0.000001000.00000
  21         A10        0.12677   0.12677   0.000001000.00000
  22         A11        0.13274   0.13274   0.000001000.00000
  23         A12        0.12677   0.12677   0.000001000.00000
  24         A13        0.13273   0.13273   0.000001000.00000
  25         A14        0.12900   0.12900   0.000001000.00000
  26         A15       -0.15701  -0.15701   0.000001000.00000
  27         A16       -0.15701  -0.15701   0.000001000.00000
  28         A17       -0.15512  -0.15512   0.000001000.00000
  29         A18        0.04237   0.04237   0.000001000.00000
  30         A19        0.03749   0.03749   0.000001000.00000
  31         A20        0.03750   0.03750   0.000001000.00000
  32         D1         0.00609   0.00609   0.000001000.00000
  33         D2        -0.00216  -0.00216   0.000001000.00000
  34         D3        -0.15755  -0.15755   0.000001000.00000
  35         D4         0.16166   0.16166   0.000001000.00000
  36         D5         0.00218   0.00218   0.000001000.00000
  37         D6         0.15755   0.15755   0.000001000.00000
  38         D7        -0.16165  -0.16165   0.000001000.00000
  39         D8        -0.00003  -0.00003   0.000001000.00000
  40         D9        -0.32788  -0.32788   0.000001000.00000
  41         D10       -0.16394  -0.16394   0.000001000.00000
  42         D11        0.16394   0.16394   0.000001000.00000
  43         D12       -0.01004  -0.01004   0.000001000.00000
  44         D13       -0.00502  -0.00502   0.000001000.00000
  45         D14        0.00502   0.00502   0.000001000.00000
  46         D15        0.00528   0.00528   0.000001000.00000
  47         D16       -0.01493  -0.01493   0.000001000.00000
  48         D17       -0.00528  -0.00528   0.000001000.00000
  49         D18        0.01493   0.01493   0.000001000.00000
  50         D19        0.01336   0.01336   0.000001000.00000
  51         D20       -0.01336  -0.01336   0.000001000.00000
 RFO step:  Lambda0=2.849755198D-01 Lambda=-9.21335447D-02.
 Linear search not attempted -- option 19 set.
 Maximum step size (   0.300) exceeded in Quadratic search.
    -- Step size scaled by   0.076
 Iteration  1 RMS(Cart)=  0.01774846 RMS(Int)=  0.00147237
 Iteration  2 RMS(Cart)=  0.00047199 RMS(Int)=  0.00126329
 Iteration  3 RMS(Cart)=  0.00000026 RMS(Int)=  0.00126329
 ITry= 1 IFail=0 DXMaxC= 9.86D-02 DCOld= 1.00D+10 DXMaxT= 3.00D-01 DXLimC= 3.00D+00 Rises=F
 Variable       Old X    -DE/DX   Delta X   Delta X   Delta X     New X
                                 (Linear)    (Quad)   (Total)
    R1        2.60782   0.04780   0.00000   0.17766   0.17683   2.78465
    R2        3.85234   0.02666   0.00000   0.06840   0.06857   3.92092
    R3        3.85235   0.02666   0.00000   0.06839   0.06856   3.92091
    R4        3.85235   0.02642   0.00000   0.06907   0.06914   3.92150
    R5        2.09645  -0.00855   0.00000  -0.02486  -0.02345   2.07300
    R6        2.09646  -0.00855   0.00000  -0.02485  -0.02345   2.07302
    R7        2.09647  -0.00933   0.00000  -0.02412  -0.02287   2.07360
    R8        2.83459   0.19835   0.00000  -0.10974  -0.10813   2.72646
    R9        2.91005   0.15297   0.00000   0.00378   0.00230   2.91235
   R10        2.91006   0.15298   0.00000   0.00378   0.00230   2.91236
   R11        2.91006   0.15341   0.00000   0.00186   0.00063   2.91069
    A1        0.92088  -0.00926   0.00000  -0.01141  -0.01218   0.90869
    A2        0.92088  -0.00888   0.00000  -0.01274  -0.01336   0.90752
    A3        0.92088  -0.00888   0.00000  -0.01274  -0.01336   0.90753
    A4        1.91062  -0.00583   0.00000  -0.04855  -0.04797   1.86266
    A5        1.91062  -0.00582   0.00000  -0.04856  -0.04797   1.86265
    A6        1.91062  -0.00555   0.00000  -0.04847  -0.04786   1.86276
    A7        3.14159  -0.00022   0.00000   0.00036   0.00031   3.14191
    A8        3.14159   0.00040   0.00000  -0.00065  -0.00056   3.14104
    A9        1.91064   0.00471   0.00000   0.05122   0.04791   1.95855
   A10        1.91064   0.00624   0.00000   0.04718   0.04414   1.95478
   A11        1.23097   0.00560   0.00000   0.04891   0.04828   1.27925
   A12        1.91065   0.00624   0.00000   0.04718   0.04414   1.95479
   A13        1.23097   0.00560   0.00000   0.04891   0.04828   1.27925
   A14        1.23097   0.00599   0.00000   0.04776   0.04724   1.27821
   A15        1.16393   0.04499   0.00000  -0.05274  -0.05175   1.11218
   A16        1.16392   0.04499   0.00000  -0.05274  -0.05175   1.11218
   A17        1.16392   0.04496   0.00000  -0.05215  -0.05121   1.11271
   A18        1.25771  -0.07998   0.00000   0.00721   0.00653   1.26425
   A19        1.25772  -0.07958   0.00000   0.00586   0.00530   1.26302
   A20        1.25772  -0.07958   0.00000   0.00586   0.00530   1.26302
    D1       -1.18424   0.00348   0.00000   0.00244   0.00280  -1.18144
    D2        3.14159   0.00040   0.00000  -0.00065  -0.00056   3.14104
    D3       -1.04721  -0.00741   0.00000  -0.05848  -0.06047  -1.10768
    D4        1.04721   0.00695   0.00000   0.05956   0.06125   1.10846
    D5        3.14159  -0.00041   0.00000   0.00065   0.00056  -3.14103
    D6        1.04721   0.00740   0.00000   0.05848   0.06047   1.10768
    D7       -1.04721  -0.00695   0.00000  -0.05955  -0.06125  -1.10846
    D8        3.14159   0.00001   0.00000  -0.00001  -0.00001   3.14159
    D9       -2.09442  -0.01342   0.00000  -0.12052  -0.12375  -2.21817
   D10       -1.04721  -0.00671   0.00000  -0.06026  -0.06188  -1.10908
   D11        1.04721   0.00671   0.00000   0.06026   0.06187   1.10908
   D12       -2.09439   0.00109   0.00000  -0.00283  -0.00257  -2.09696
   D13        2.09439   0.00054   0.00000  -0.00142  -0.00129   2.09311
   D14       -2.09440  -0.00054   0.00000   0.00142   0.00128  -2.09312
   D15        0.66655  -0.02214   0.00000   0.00013   0.00012   0.66667
   D16       -0.66655   0.02329   0.00000  -0.00288  -0.00262  -0.66917
   D17       -0.66655   0.02214   0.00000  -0.00013  -0.00012  -0.66667
   D18        0.66655  -0.02329   0.00000   0.00288   0.00261   0.66916
   D19        0.66655  -0.02298   0.00000   0.00240   0.00219   0.66873
   D20       -0.66654   0.02299   0.00000  -0.00241  -0.00219  -0.66873
         Item               Value     Threshold  Converged?
 Maximum Force            0.198345     0.000450     NO 
 RMS     Force            0.053063     0.000300     NO 
 Maximum Displacement     0.098594     0.001800     NO 
 RMS     Displacement     0.017834     0.001200     NO 
 Predicted change in Energy= 2.302935D-02
 Lowest energy point so far.  Saving SCF results.
 GradGradGradGradGradGradGradGradGradGradGradGradGradGradGradGradGradGrad

 Leave Link  103 at Fri Sep 22 13:46:45 2017, MaxMem=    33554432 cpu:         0.0
 (Enter /home/unamur/ucpts/pbeaujea/gaussian//g09/l202.exe)
                          Input orientation:                          
 ---------------------------------------------------------------------
 Center     Atomic      Atomic             Coordinates (Angstroms)
 Number     Number       Type             X           Y           Z
 ---------------------------------------------------------------------
      1          9           0       -0.000245   -0.000013    1.421400
      2          6           0       -0.000594   -0.000023   -0.052174
      3          1           0       -0.562363    0.887807   -0.367690
      4          1           0       -0.486025   -0.931797   -0.367687
      5          1           0        1.049271    0.044030   -0.368264
      6         17           0       -0.000044   -0.000003   -1.494956
 ---------------------------------------------------------------------
                    Distance matrix (angstroms):
                    1          2          3          4          5
     1  F    0.000000
     2  C    1.473574   0.000000
     3  H    2.074860   1.096986   0.000000
     4  H    2.074858   1.096993   1.821205   0.000000
     5  H    2.075167   1.097301   1.819155   1.819167   0.000000
     6  Cl   2.916356   1.442782   1.541149   1.541153   1.540271
                    6
     6  Cl   0.000000
 Stoichiometry    CH3ClF(1-)
 Framework group  C1[X(CH3ClF)]
 Deg. of freedom    12
 Full point group                 C1      NOp   1
 RotChk:  IX=2 Diff= 1.55D+00
 Largest Abelian subgroup         C1      NOp   1
 Largest concise Abelian subgroup C1      NOp   1
                         Standard orientation:                         
 ---------------------------------------------------------------------
 Center     Atomic      Atomic             Coordinates (Angstroms)
 Number     Number       Type             X           Y           Z
 ---------------------------------------------------------------------
      1          9           0       -1.822495    0.000001   -0.000102
      2          6           0       -0.348922   -0.000002    0.000398
      3          1           0       -0.033459   -0.909276    0.526784
      4          1           0       -0.033462    0.911924    0.522194
      5          1           0       -0.032725   -0.002657   -1.050355
      6         17           0        1.093861    0.000001   -0.000006
 ---------------------------------------------------------------------
 Rotational constants (GHZ):    151.4132784      4.6764630      4.6762468
 Leave Link  202 at Fri Sep 22 13:46:45 2017, MaxMem=    33554432 cpu:         0.0
 (Enter /home/unamur/ucpts/pbeaujea/gaussian//g09/l301.exe)
 Standard basis: 6-31+G(d) (6D, 7F)
 Ernie: Thresh=  0.10000D-02 Tol=  0.10000D-05 Strict=F.
 There are    67 symmetry adapted cartesian basis functions of A   symmetry.
 There are    67 symmetry adapted basis functions of A   symmetry.
    67 basis functions,   132 primitive gaussians,    67 cartesian basis functions
    18 alpha electrons       18 beta electrons
       nuclear repulsion energy       118.5205044137 Hartrees.
 IExCor=    0 DFT=F Ex=HF Corr=None ExCW=0 ScaHFX=  1.000000
 ScaDFX=  1.000000  1.000000  1.000000  1.000000 ScalE2=  1.000000  1.000000
 IRadAn=      0 IRanWt=     -1 IRanGd=            0 ICorTp=0 IEmpDi=  4
 NAtoms=    6 NActive=    6 NUniq=    6 SFac= 1.00D+00 NAtFMM=   60 NAOKFM=F Big=F
 Integral buffers will be    131072 words long.
 Raffenetti 1 integral format.
 Two-electron integral symmetry is turned on.
 Leave Link  301 at Fri Sep 22 13:46:45 2017, MaxMem=    33554432 cpu:         0.1
 (Enter /home/unamur/ucpts/pbeaujea/gaussian//g09/l302.exe)
 NPDir=0 NMtPBC=     1 NCelOv=     1 NCel=       1 NClECP=     1 NCelD=      1
         NCelK=      1 NCelE2=     1 NClLst=     1 CellRange=     0.0.
 One-electron integrals computed using PRISM.
 NBasis=    67 RedAO= T EigKep=  3.87D-04  NBF=    67
 NBsUse=    67 1.00D-06 EigRej= -1.00D+00 NBFU=    67
 Leave Link  302 at Fri Sep 22 13:46:46 2017, MaxMem=    33554432 cpu:         0.3
 (Enter /home/unamur/ucpts/pbeaujea/gaussian//g09/l303.exe)
 DipDrv:  MaxL=1.
 Leave Link  303 at Fri Sep 22 13:46:46 2017, MaxMem=    33554432 cpu:         0.0
 (Enter /home/unamur/ucpts/pbeaujea/gaussian//g09/l401.exe)
 Initial guess from the checkpoint file:  "CH3F-Cl_TS.chk"
 B after Tr=     0.000000    0.000000    0.000000
         Rot=    0.836372    0.548163    0.000011    0.000007 Ang=  66.48 deg.
 Guess basis will be translated and rotated to current coordinates.
 JPrj=2 DoOrth=T DoCkMO=T.
 Generating alternative initial guess.
 ExpMin= 4.38D-02 ExpMax= 2.52D+04 ExpMxC= 3.78D+03 IAcc=2 IRadAn=         4 AccDes= 0.00D+00
 Harris functional with IExCor=  205 and IRadAn=       4 diagonalized for initial guess.
 HarFok:  IExCor=  205 AccDes= 0.00D+00 IRadAn=         4 IDoV= 1 UseB2=F ITyADJ=14
 ICtDFT=  3500011 ScaDFX=  1.000000  1.000000  1.000000  1.000000
 FoFCou: FMM=F IPFlag=           0 FMFlag=      100000 FMFlg1=           0
         NFxFlg=           0 DoJE=T BraDBF=F KetDBF=T FulRan=T
         wScrn=  0.000000 ICntrl=     500 IOpCl=  0 I1Cent=   200000004 NGrid=           0
         NMat0=    1 NMatS0=      1 NMatT0=    0 NMatD0=    1 NMtDS0=    0 NMtDT0=    0
 Petite list used in FoFCou.
 Harris En= -597.933605372576    
 Leave Link  401 at Fri Sep 22 13:46:46 2017, MaxMem=    33554432 cpu:         0.7
 (Enter /home/unamur/ucpts/pbeaujea/gaussian//g09/l502.exe)
 Closed shell SCF:
 Using DIIS extrapolation, IDIIS=  1040.
 Integral symmetry usage will be decided dynamically.
 Keep R1 ints in memory in canonical form, NReq=3474144.
 IVT=       32922 IEndB=       32922 NGot=    33554432 MDV=    30925730
 LenX=    30925730 LenY=    30920800
 Requested convergence on RMS density matrix=1.00D-08 within 128 cycles.
 Requested convergence on MAX density matrix=1.00D-06.
 Requested convergence on             energy=1.00D-06.
 No special actions if energy rises.
 FoFCou: FMM=F IPFlag=           0 FMFlag=           0 FMFlg1=           0
         NFxFlg=           0 DoJE=F BraDBF=F KetDBF=F FulRan=T
         wScrn=  0.000000 ICntrl=     600 IOpCl=  0 I1Cent=           0 NGrid=           0
         NMat0=    1 NMatS0=   2278 NMatT0=    0 NMatD0=    1 NMtDS0=    0 NMtDT0=    0
 Symmetry not used in FoFCou.

 Cycle   1  Pass 1  IDiag  1:
 E= -598.004992225259    
 DIIS: error= 1.14D-02 at cycle   1 NSaved=   1.
 NSaved= 1 IEnMin= 1 EnMin= -598.004992225259     IErMin= 1 ErrMin= 1.14D-02
 ErrMax= 1.14D-02  0.00D+00 EMaxC= 1.00D-01 BMatC= 6.32D-03 BMatP= 6.32D-03
 IDIUse=3 WtCom= 8.86D-01 WtEn= 1.14D-01
 Coeff-Com:  0.100D+01
 Coeff-En:   0.100D+01
 Coeff:      0.100D+01
 Recover alternate guess density for next cycle.
 RMSDP=4.71D-02 MaxDP=1.50D+00              OVMax= 0.00D+00

 Cycle   2  Pass 1  IDiag  1:
 E= -597.799195043677     Delta-E=        0.205797181582 Rises=F Damp=F
 Switch densities from cycles 1 and 2 for lowest energy.
 DIIS: error= 9.13D-02 at cycle   2 NSaved=   2.
 NSaved= 2 IEnMin= 1 EnMin= -598.004992225259     IErMin= 1 ErrMin= 1.14D-02
 ErrMax= 9.13D-02  0.00D+00 EMaxC= 1.00D+00 BMatC= 3.46D-01 BMatP= 6.32D-03
 IDIUse=1 WtCom= 1.00D+00 WtEn= 0.00D+00
 Coeff-Com:  0.969D+00 0.308D-01
 Coeff:      0.969D+00 0.308D-01
 Gap=     0.435 Goal=   None    Shift=    0.000
 RMSDP=7.71D-03 MaxDP=2.52D-01 DE= 2.06D-01 OVMax= 2.31D-01

 Cycle   3  Pass 1  IDiag  1:
 E= -598.014908870115     Delta-E=       -0.215713826438 Rises=F Damp=F
 DIIS: error= 3.48D-03 at cycle   3 NSaved=   3.
 NSaved= 3 IEnMin= 3 EnMin= -598.014908870115     IErMin= 3 ErrMin= 3.48D-03
 ErrMax= 3.48D-03  0.00D+00 EMaxC= 1.00D+00 BMatC= 5.59D-04 BMatP= 6.32D-03
 IDIUse=1 WtCom= 1.00D+00 WtEn= 0.00D+00
 Coeff-Com: -0.850D-01-0.561D-02 0.109D+01
 Coeff:     -0.850D-01-0.561D-02 0.109D+01
 Gap=     0.309 Goal=   None    Shift=    0.000
 RMSDP=3.86D-03 MaxDP=1.38D-01 DE=-2.16D-01 OVMax= 1.90D-02

 Cycle   4  Pass 1  IDiag  1:
 E= -598.015979657106     Delta-E=       -0.001070786991 Rises=F Damp=F
 DIIS: error= 1.50D-03 at cycle   4 NSaved=   4.
 NSaved= 4 IEnMin= 4 EnMin= -598.015979657106     IErMin= 4 ErrMin= 1.50D-03
 ErrMax= 1.50D-03  0.00D+00 EMaxC= 1.00D+00 BMatC= 1.32D-04 BMatP= 5.59D-04
 IDIUse=1 WtCom= 1.00D+00 WtEn= 0.00D+00
 Coeff-Com: -0.952D-01-0.403D-02 0.283D+00 0.817D+00
 Coeff:     -0.952D-01-0.403D-02 0.283D+00 0.817D+00
 Gap=     0.311 Goal=   None    Shift=    0.000
 RMSDP=2.85D-03 MaxDP=9.92D-02 DE=-1.07D-03 OVMax= 8.64D-03

 Cycle   5  Pass 1  IDiag  1:
 E= -598.016200411719     Delta-E=       -0.000220754613 Rises=F Damp=F
 DIIS: error= 7.95D-04 at cycle   5 NSaved=   5.
 NSaved= 5 IEnMin= 5 EnMin= -598.016200411719     IErMin= 5 ErrMin= 7.95D-04
 ErrMax= 7.95D-04  0.00D+00 EMaxC= 1.00D+00 BMatC= 1.55D-05 BMatP= 1.32D-04
 IDIUse=1 WtCom= 1.00D+00 WtEn= 0.00D+00
 Coeff-Com:  0.313D-01 0.190D-02-0.202D+00-0.732D-01 0.124D+01
 Coeff:      0.313D-01 0.190D-02-0.202D+00-0.732D-01 0.124D+01
 Gap=     0.311 Goal=   None    Shift=    0.000
 RMSDP=2.50D-03 MaxDP=8.70D-02 DE=-2.21D-04 OVMax= 6.89D-03

 Cycle   6  Pass 1  IDiag  1:
 E= -598.016254870487     Delta-E=       -0.000054458767 Rises=F Damp=F
 DIIS: error= 1.42D-04 at cycle   6 NSaved=   6.
 NSaved= 6 IEnMin= 6 EnMin= -598.016254870487     IErMin= 6 ErrMin= 1.42D-04
 ErrMax= 1.42D-04  0.00D+00 EMaxC= 1.00D+00 BMatC= 1.63D-06 BMatP= 1.55D-05
 IDIUse=1 WtCom= 1.00D+00 WtEn= 0.00D+00
 Coeff-Com:  0.115D-01-0.488D-03-0.390D-01-0.100D+00 0.652D-01 0.106D+01
 Coeff:      0.115D-01-0.488D-03-0.390D-01-0.100D+00 0.652D-01 0.106D+01
 Gap=     0.311 Goal=   None    Shift=    0.000
 RMSDP=9.29D-04 MaxDP=3.23D-02 DE=-5.45D-05 OVMax= 2.14D-03

 Cycle   7  Pass 1  IDiag  1:
 E= -598.016260128576     Delta-E=       -0.000005258089 Rises=F Damp=F
 DIIS: error= 4.93D-05 at cycle   7 NSaved=   7.
 NSaved= 7 IEnMin= 7 EnMin= -598.016260128576     IErMin= 7 ErrMin= 4.93D-05
 ErrMax= 4.93D-05  0.00D+00 EMaxC= 1.00D+00 BMatC= 1.12D-07 BMatP= 1.63D-06
 IDIUse=1 WtCom= 1.00D+00 WtEn= 0.00D+00
 Coeff-Com: -0.235D-02-0.107D-03 0.171D-01 0.244D-03-0.826D-01-0.846D-01
 Coeff-Com:  0.115D+01
 Coeff:     -0.235D-02-0.107D-03 0.171D-01 0.244D-03-0.826D-01-0.846D-01
 Coeff:      0.115D+01
 Gap=     0.311 Goal=   None    Shift=    0.000
 RMSDP=2.93D-04 MaxDP=1.03D-02 DE=-5.26D-06 OVMax= 7.28D-04

 Cycle   8  Pass 1  IDiag  1:
 E= -598.016260672188     Delta-E=       -0.000000543612 Rises=F Damp=F
 DIIS: error= 2.09D-05 at cycle   8 NSaved=   8.
 NSaved= 8 IEnMin= 8 EnMin= -598.016260672188     IErMin= 8 ErrMin= 2.09D-05
 ErrMax= 2.09D-05  0.00D+00 EMaxC= 1.00D+00 BMatC= 1.65D-08 BMatP= 1.12D-07
 IDIUse=1 WtCom= 1.00D+00 WtEn= 0.00D+00
 Coeff-Com: -0.569D-03 0.241D-04 0.123D-02 0.627D-02 0.107D-01-0.915D-01
 Coeff-Com: -0.188D+00 0.126D+01
 Coeff:     -0.569D-03 0.241D-04 0.123D-02 0.627D-02 0.107D-01-0.915D-01
 Coeff:     -0.188D+00 0.126D+01
 Gap=     0.311 Goal=   None    Shift=    0.000
 RMSDP=8.11D-05 MaxDP=3.00D-03 DE=-5.44D-07 OVMax= 3.09D-04

 Cycle   9  Pass 1  IDiag  1:
 E= -598.016260757060     Delta-E=       -0.000000084872 Rises=F Damp=F
 DIIS: error= 7.99D-06 at cycle   9 NSaved=   9.
 NSaved= 9 IEnMin= 9 EnMin= -598.016260757060     IErMin= 9 ErrMin= 7.99D-06
 ErrMax= 7.99D-06  0.00D+00 EMaxC= 1.00D+00 BMatC= 2.58D-09 BMatP= 1.65D-08
 IDIUse=1 WtCom= 1.00D+00 WtEn= 0.00D+00
 Coeff-Com:  0.486D-03-0.125D-04-0.311D-02-0.830D-03 0.133D-01 0.176D-01
 Coeff-Com: -0.177D+00-0.870D-01 0.124D+01
 Coeff:      0.486D-03-0.125D-04-0.311D-02-0.830D-03 0.133D-01 0.176D-01
 Coeff:     -0.177D+00-0.870D-01 0.124D+01
 Gap=     0.311 Goal=   None    Shift=    0.000
 RMSDP=1.41D-05 MaxDP=5.52D-04 DE=-8.49D-08 OVMax= 1.17D-04

 Cycle  10  Pass 1  IDiag  1:
 E= -598.016260767928     Delta-E=       -0.000000010868 Rises=F Damp=F
 DIIS: error= 1.38D-06 at cycle  10 NSaved=  10.
 NSaved=10 IEnMin=10 EnMin= -598.016260767928     IErMin=10 ErrMin= 1.38D-06
 ErrMax= 1.38D-06  0.00D+00 EMaxC= 1.00D+00 BMatC= 1.39D-10 BMatP= 2.58D-09
 IDIUse=1 WtCom= 1.00D+00 WtEn= 0.00D+00
 Coeff-Com:  0.255D-04 0.307D-05 0.120D-03-0.661D-03-0.210D-02 0.104D-01
 Coeff-Com:  0.410D-01-0.128D+00-0.936D-01 0.117D+01
 Coeff:      0.255D-04 0.307D-05 0.120D-03-0.661D-03-0.210D-02 0.104D-01
 Coeff:      0.410D-01-0.128D+00-0.936D-01 0.117D+01
 Gap=     0.311 Goal=   None    Shift=    0.000
 RMSDP=7.38D-06 MaxDP=2.17D-04 DE=-1.09D-08 OVMax= 2.13D-05

 Cycle  11  Pass 1  IDiag  1:
 E= -598.016260768440     Delta-E=       -0.000000000512 Rises=F Damp=F
 DIIS: error= 2.90D-07 at cycle  11 NSaved=  11.
 NSaved=11 IEnMin=11 EnMin= -598.016260768440     IErMin=11 ErrMin= 2.90D-07
 ErrMax= 2.90D-07  0.00D+00 EMaxC= 1.00D+00 BMatC= 5.07D-12 BMatP= 1.39D-10
 IDIUse=1 WtCom= 1.00D+00 WtEn= 0.00D+00
 Coeff-Com: -0.271D-04-0.452D-06 0.158D-03 0.109D-03-0.574D-03-0.215D-02
 Coeff-Com:  0.622D-02 0.130D-01-0.534D-01-0.106D+00 0.114D+01
 Coeff:     -0.271D-04-0.452D-06 0.158D-03 0.109D-03-0.574D-03-0.215D-02
 Coeff:      0.622D-02 0.130D-01-0.534D-01-0.106D+00 0.114D+01
 Gap=     0.311 Goal=   None    Shift=    0.000
 RMSDP=9.41D-07 MaxDP=2.94D-05 DE=-5.12D-10 OVMax= 3.43D-06

 Cycle  12  Pass 1  IDiag  1:
 E= -598.016260768458     Delta-E=       -0.000000000018 Rises=F Damp=F
 DIIS: error= 7.90D-08 at cycle  12 NSaved=  12.
 NSaved=12 IEnMin=12 EnMin= -598.016260768458     IErMin=12 ErrMin= 7.90D-08
 ErrMax= 7.90D-08  0.00D+00 EMaxC= 1.00D+00 BMatC= 2.01D-13 BMatP= 5.07D-12
 IDIUse=1 WtCom= 1.00D+00 WtEn= 0.00D+00
 Coeff-Com:  0.197D-05 0.703D-07-0.186D-04 0.125D-04 0.103D-03-0.195D-04
 Coeff-Com: -0.185D-02 0.302D-02 0.102D-01-0.311D-01-0.115D+00 0.113D+01
 Coeff:      0.197D-05 0.703D-07-0.186D-04 0.125D-04 0.103D-03-0.195D-04
 Coeff:     -0.185D-02 0.302D-02 0.102D-01-0.311D-01-0.115D+00 0.113D+01
 Gap=     0.311 Goal=   None    Shift=    0.000
 RMSDP=2.08D-07 MaxDP=7.89D-06 DE=-1.75D-11 OVMax= 8.57D-07

 Cycle  13  Pass 1  IDiag  1:
 E= -598.016260768457     Delta-E=        0.000000000001 Rises=F Damp=F
 DIIS: error= 1.35D-08 at cycle  13 NSaved=  13.
 NSaved=13 IEnMin=12 EnMin= -598.016260768458     IErMin=13 ErrMin= 1.35D-08
 ErrMax= 1.35D-08  0.00D+00 EMaxC= 1.00D+00 BMatC= 7.72D-15 BMatP= 2.01D-13
 IDIUse=1 WtCom= 1.00D+00 WtEn= 0.00D+00
 Coeff-Com:  0.693D-06 0.477D-08-0.215D-05-0.731D-05-0.219D-05 0.107D-03
 Coeff-Com:  0.172D-03-0.138D-02 0.706D-04 0.113D-01-0.291D-01-0.232D+00
 Coeff-Com:  0.125D+01
 Coeff:      0.693D-06 0.477D-08-0.215D-05-0.731D-05-0.219D-05 0.107D-03
 Coeff:      0.172D-03-0.138D-02 0.706D-04 0.113D-01-0.291D-01-0.232D+00
 Coeff:      0.125D+01
 Gap=     0.311 Goal=   None    Shift=    0.000
 RMSDP=1.63D-08 MaxDP=5.53D-07 DE= 7.96D-13 OVMax= 1.62D-07

 Cycle  14  Pass 1  IDiag  1:
 E= -598.016260768458     Delta-E=       -0.000000000001 Rises=F Damp=F
 DIIS: error= 1.02D-09 at cycle  14 NSaved=  14.
 NSaved=14 IEnMin=14 EnMin= -598.016260768458     IErMin=14 ErrMin= 1.02D-09
 ErrMax= 1.02D-09  0.00D+00 EMaxC= 1.00D+00 BMatC= 1.46D-16 BMatP= 7.72D-15
 IDIUse=1 WtCom= 1.00D+00 WtEn= 0.00D+00
 Coeff-Com: -0.193D-06-0.178D-08 0.105D-05 0.707D-06-0.324D-05-0.161D-04
 Coeff-Com:  0.242D-04 0.143D-03-0.249D-03-0.120D-02 0.880D-02 0.832D-02
 Coeff-Com: -0.199D+00 0.118D+01
 Coeff:     -0.193D-06-0.178D-08 0.105D-05 0.707D-06-0.324D-05-0.161D-04
 Coeff:      0.242D-04 0.143D-03-0.249D-03-0.120D-02 0.880D-02 0.832D-02
 Coeff:     -0.199D+00 0.118D+01
 Gap=     0.311 Goal=   None    Shift=    0.000
 RMSDP=1.68D-09 MaxDP=5.98D-08 DE=-9.09D-13 OVMax= 1.47D-08

 SCF Done:  E(RHF) =   -598.01626076845800000000 A.U. after   14 cycles
            NFock= 14  Conv=0.17D-08     -V/T= 1.9966
 KE= 6.000471833300D+02 PE=-1.670722111916D+03 EE= 3.541381634034D+02
 Leave Link  502 at Fri Sep 22 13:46:47 2017, MaxMem=    33554432 cpu:         0.8
 (Enter /home/unamur/ucpts/pbeaujea/gaussian//g09/l701.exe)
 Compute integral first derivatives.
 ... and contract with generalized density number  0.
 Leave Link  701 at Fri Sep 22 13:46:47 2017, MaxMem=    33554432 cpu:         0.3
 (Enter /home/unamur/ucpts/pbeaujea/gaussian//g09/l702.exe)
 L702 exits ... SP integral derivatives will be done elsewhere.
 Leave Link  702 at Fri Sep 22 13:46:47 2017, MaxMem=    33554432 cpu:         0.0
 (Enter /home/unamur/ucpts/pbeaujea/gaussian//g09/l703.exe)
 Compute integral first derivatives, UseDBF=F ICtDFT=           0.
 Integral derivatives from FoFJK, PRISM(SPDF).
 Calling FoFJK, ICntrl=      2127 FMM=F ISym2X=0 I1Cent= 0 IOpClX= 0 NMat=1 NMatS=1 NMatT=0.
 FoFJK:  IHMeth= 1 ICntrl=    2127 DoSepK=F KAlg= 0 I1Cent=   0 FoldK=F
 IRaf=         0 NMat=   1 IRICut=       1 DoRegI=T DoRafI=F ISym2E= 0.
 FoFCou: FMM=F IPFlag=           0 FMFlag=      100000 FMFlg1=         800
         NFxFlg=           0 DoJE=F BraDBF=F KetDBF=F FulRan=T
         wScrn=  0.000000 ICntrl=    2127 IOpCl=  0 I1Cent=           0 NGrid=           0
         NMat0=    1 NMatS0=      1 NMatT0=    0 NMatD0=    1 NMtDS0=    0 NMtDT0=    0
 Symmetry not used in FoFCou.
 Leave Link  703 at Fri Sep 22 13:46:47 2017, MaxMem=    33554432 cpu:         1.1
 (Enter /home/unamur/ucpts/pbeaujea/gaussian//g09/l716.exe)
 Dipole        = 8.97694398D-01-7.19408976D-06-8.29735901D-05
 ***** Axes restored to original set *****
 -------------------------------------------------------------------
 Center     Atomic                   Forces (Hartrees/Bohr)
 Number     Number              X              Y              Z
 -------------------------------------------------------------------
      1        9          -0.000045242   -0.000002022    0.103227483
      2        6           0.000492571    0.000019059    0.223051078
      3        1          -0.031426842    0.049295855    0.137248957
      4        1          -0.027185610   -0.051751367    0.137248741
      5        1           0.058371774    0.002449634    0.137514163
      6       17          -0.000206651   -0.000011158   -0.738290423
 -------------------------------------------------------------------
 Cartesian Forces:  Max     0.738290423 RMS     0.193263439
 Leave Link  716 at Fri Sep 22 13:46:47 2017, MaxMem=    33554432 cpu:         0.0
 (Enter /home/unamur/ucpts/pbeaujea/gaussian//g09/l103.exe)

 GradGradGradGradGradGradGradGradGradGradGradGradGradGradGradGradGradGrad
 Berny optimization.
 FormGI is forming the generalized inverse of G from B-inverse, IUseBI=4.
 Internal  Forces:  Max     0.224462716 RMS     0.058020822
 Search for a saddle point.
 Step number   2 out of a maximum of   61
 All quantities printed in internal units (Hartrees-Bohrs-Radians)
 Update second derivatives using D2CorX and points    1    2
 ITU=  0  0
 LST/QST climbing along tangent vector
     Eigenvalues ---    0.05281   0.05423   0.05936   0.06208   0.08514
     Eigenvalues ---    0.09081   0.10880   0.11166   0.21900   0.23001
     Eigenvalues ---    0.24135   0.330441000.000001000.000001000.00000
     Eigenvalues --- 1000.000001000.000001000.000001000.000001000.00000
     Eigenvalues --- 1000.000001000.000001000.000001000.000001000.00000
     Eigenvalues --- 1000.000001000.000001000.000001000.000001000.00000
     Eigenvalues --- 1000.000001000.000001000.000001000.000001000.00000
     Eigenvalues --- 1000.000001000.000001000.000001000.000001000.00000
     Eigenvalues --- 1000.000001000.000001000.000001000.000001000.00000
     Eigenvalues --- 1000.000001000.000001000.000001000.000001000.00000
     Eigenvalues --- 1000.00000
 Eigenvectors required to have negative eigenvalues:
                          R4        D2        A8        D5        A6
   1                    0.41361   0.35181   0.35181  -0.32412   0.30573
                          R3        R2        D1        A5        A7
   1                   -0.24456  -0.19147  -0.16917  -0.16776  -0.16327
 Eigenvalue     1 is   5.28D-02 should be less than     0.000000 Eigenvector:
                          R4        D2        A8        D5        A6
   1                    0.41361   0.35181   0.35181  -0.32412   0.30573
                          R3        R2        D1        A5        A7
   1                   -0.24456  -0.19147  -0.16917  -0.16776  -0.16327
 QST in optimization variable space.
 Eigenvectors 1 and   5 swapped, overlap=  1.0000
                        Tangent   TS vect  // Eig F  Eigenval
   1         R1         0.49269   0.49269  -0.05826   0.08514
   2         R2         0.19296   0.19296  -0.00007   0.05423
   3         R3         0.19294   0.19294   0.00291   0.05936
   4         R4         0.19400   0.19400  -0.00001   0.06208
   5         R5        -0.05913  -0.05913  -0.00068   0.05281
   6         R6        -0.05912  -0.05912  -0.02962   0.09081
   7         R7        -0.05754  -0.05754   0.00569   0.10880
   8         R8        -0.31103  -0.31103  -0.00012   0.11166
   9         R9        -0.00372  -0.00372  -0.00566   0.21900
  10         R10       -0.00371  -0.00371   0.00014   0.23001
  11         R11       -0.00688  -0.00688   0.07434   0.24135
  12         A1        -0.03458  -0.03458   0.18867   0.33044
  13         A2        -0.03742  -0.03742   0.000001000.00000
  14         A3        -0.03741  -0.03741   0.000001000.00000
  15         A4        -0.13373  -0.13373   0.000001000.00000
  16         A5        -0.13375  -0.13375   0.000001000.00000
  17         A6        -0.13379  -0.13379   0.000001000.00000
  18         A7         0.00076   0.00076   0.000001000.00000
  19         A8        -0.00135  -0.00135   0.000001000.00000
  20         A9         0.12602   0.12602   0.000001000.00000
  21         A10        0.11599   0.11599   0.000001000.00000
  22         A11        0.13450   0.13450   0.000001000.00000
  23         A12        0.11599   0.11599   0.000001000.00000
  24         A13        0.13450   0.13450   0.000001000.00000
  25         A14        0.13227   0.13227   0.000001000.00000
  26         A15       -0.14672  -0.14672   0.000001000.00000
  27         A16       -0.14672  -0.14672   0.000001000.00000
  28         A17       -0.14576  -0.14576   0.000001000.00000
  29         A18        0.02209   0.02209   0.000001000.00000
  30         A19        0.01873   0.01873   0.000001000.00000
  31         A20        0.01873   0.01873   0.000001000.00000
  32         D1         0.00827   0.00827   0.000001000.00000
  33         D2        -0.00135  -0.00135   0.000001000.00000
  34         D3        -0.17597  -0.17597   0.000001000.00000
  35         D4         0.17793   0.17793   0.000001000.00000
  36         D5         0.00136   0.00136   0.000001000.00000
  37         D6         0.17597   0.17597   0.000001000.00000
  38         D7        -0.17793  -0.17793   0.000001000.00000
  39         D8        -0.00001  -0.00001   0.000001000.00000
  40         D9        -0.35850  -0.35850   0.000001000.00000
  41         D10       -0.17925  -0.17925   0.000001000.00000
  42         D11        0.17925   0.17925   0.000001000.00000
  43         D12       -0.00683  -0.00683   0.000001000.00000
  44         D13       -0.00342  -0.00342   0.000001000.00000
  45         D14        0.00341   0.00341   0.000001000.00000
  46         D15        0.00170   0.00170   0.000001000.00000
  47         D16       -0.00828  -0.00828   0.000001000.00000
  48         D17       -0.00170  -0.00170   0.000001000.00000
  49         D18        0.00828   0.00828   0.000001000.00000
  50         D19        0.00722   0.00722   0.000001000.00000
  51         D20       -0.00721  -0.00721   0.000001000.00000
 RFO step:  Lambda0=1.147206812D-01 Lambda=-1.03006598D-01.
 Linear search not attempted -- option 19 set.
 Maximum step size (   0.300) exceeded in Quadratic search.
    -- Step size scaled by   0.182
 Iteration  1 RMS(Cart)=  0.01898506 RMS(Int)=  0.00165452
 Iteration  2 RMS(Cart)=  0.00054808 RMS(Int)=  0.00143112
 Iteration  3 RMS(Cart)=  0.00000032 RMS(Int)=  0.00143112
 ITry= 1 IFail=0 DXMaxC= 9.53D-02 DCOld= 1.00D+10 DXMaxT= 3.00D-01 DXLimC= 3.00D+00 Rises=F
 Variable       Old X    -DE/DX   Delta X   Delta X   Delta X     New X
                                 (Linear)    (Quad)   (Total)
    R1        2.78465   0.03712   0.00000   0.18591   0.18494   2.96959
    R2        3.92092   0.02348   0.00000   0.07100   0.07121   3.99212
    R3        3.92091   0.02348   0.00000   0.07100   0.07120   3.99211
    R4        3.92150   0.02339   0.00000   0.07122   0.07136   3.99286
    R5        2.07300  -0.00633   0.00000  -0.02176  -0.02029   2.05272
    R6        2.07302  -0.00633   0.00000  -0.02176  -0.02029   2.05273
    R7        2.07360  -0.00698   0.00000  -0.02155  -0.02020   2.05340
    R8        2.72646   0.22446   0.00000  -0.06701  -0.06512   2.66134
    R9        2.91235   0.16622   0.00000   0.03827   0.03674   2.94909
   R10        2.91236   0.16622   0.00000   0.03828   0.03674   2.94910
   R11        2.91069   0.16628   0.00000   0.03770   0.03631   2.94700
    A1        0.90869  -0.00820   0.00000  -0.01239  -0.01322   0.89547
    A2        0.90752  -0.00810   0.00000  -0.01277  -0.01349   0.89403
    A3        0.90753  -0.00811   0.00000  -0.01277  -0.01349   0.89404
    A4        1.86266  -0.00276   0.00000  -0.05203  -0.05127   1.81139
    A5        1.86265  -0.00275   0.00000  -0.05203  -0.05127   1.81138
    A6        1.86276  -0.00248   0.00000  -0.05198  -0.05120   1.81156
    A7        3.14191  -0.00017   0.00000   0.00012   0.00008   3.14198
    A8        3.14104   0.00030   0.00000  -0.00020  -0.00013   3.14090
    A9        1.95855   0.00193   0.00000   0.04739   0.04322   2.00177
   A10        1.95478   0.00260   0.00000   0.04591   0.04210   1.99688
   A11        1.27925   0.00259   0.00000   0.05215   0.05135   1.33060
   A12        1.95479   0.00260   0.00000   0.04591   0.04210   1.99690
   A13        1.27925   0.00259   0.00000   0.05215   0.05135   1.33060
   A14        1.27821   0.00281   0.00000   0.05174   0.05104   1.32925
   A15        1.11218   0.05272   0.00000  -0.04470  -0.04360   1.06858
   A16        1.11218   0.05272   0.00000  -0.04470  -0.04360   1.06858
   A17        1.11271   0.05283   0.00000  -0.04451  -0.04343   1.06927
   A18        1.26425  -0.08713   0.00000  -0.01131  -0.01192   1.25233
   A19        1.26302  -0.08694   0.00000  -0.01172  -0.01221   1.25081
   A20        1.26302  -0.08694   0.00000  -0.01171  -0.01221   1.25082
    D1       -1.18144   0.00277   0.00000   0.00363   0.00396  -1.17748
    D2        3.14104   0.00030   0.00000  -0.00020  -0.00013   3.14090
    D3       -1.10768  -0.00366   0.00000  -0.06902  -0.07094  -1.17862
    D4        1.10846   0.00355   0.00000   0.06904   0.07078   1.17924
    D5       -3.14103  -0.00030   0.00000   0.00020   0.00013  -3.14090
    D6        1.10768   0.00366   0.00000   0.06902   0.07094   1.17862
    D7       -1.10846  -0.00355   0.00000  -0.06904  -0.07078  -1.17924
    D8        3.14159   0.00000   0.00000   0.00000   0.00000   3.14159
    D9       -2.21817  -0.00683   0.00000  -0.13854  -0.14192  -2.36008
   D10       -1.10908  -0.00341   0.00000  -0.06927  -0.07096  -1.18004
   D11        1.10908   0.00342   0.00000   0.06927   0.07096   1.18004
   D12       -2.09696   0.00045   0.00000  -0.00093  -0.00068  -2.09764
   D13        2.09311   0.00023   0.00000  -0.00047  -0.00034   2.09277
   D14       -2.09312  -0.00023   0.00000   0.00046   0.00034  -2.09278
   D15        0.66667  -0.02480   0.00000  -0.00389  -0.00386   0.66281
   D16       -0.66917   0.02542   0.00000   0.00298   0.00320  -0.66597
   D17       -0.66667   0.02479   0.00000   0.00389   0.00386  -0.66281
   D18        0.66916  -0.02542   0.00000  -0.00298  -0.00320   0.66596
   D19        0.66873  -0.02516   0.00000  -0.00316  -0.00333   0.66541
   D20       -0.66873   0.02516   0.00000   0.00316   0.00333  -0.66540
         Item               Value     Threshold  Converged?
 Maximum Force            0.224463     0.000450     NO 
 RMS     Force            0.058021     0.000300     NO 
 Maximum Displacement     0.095335     0.001800     NO 
 RMS     Displacement     0.019132     0.001200     NO 
 Predicted change in Energy=-1.307993D-02
 GradGradGradGradGradGradGradGradGradGradGradGradGradGradGradGradGradGrad

 Leave Link  103 at Fri Sep 22 13:46:47 2017, MaxMem=    33554432 cpu:         0.0
 (Enter /home/unamur/ucpts/pbeaujea/gaussian//g09/l202.exe)
                          Input orientation:                          
 ---------------------------------------------------------------------
 Center     Atomic      Atomic             Coordinates (Angstroms)
 Number     Number       Type             X           Y           Z
 ---------------------------------------------------------------------
      1          9           0       -0.000299   -0.000017    1.468815
      2          6           0       -0.000747   -0.000029   -0.102623
      3          1           0       -0.564544    0.891688   -0.361299
      4          1           0       -0.487874   -0.935847   -0.361295
      5          1           0        1.053521    0.044209   -0.362024
      6         17           0       -0.000058   -0.000004   -1.510943
 ---------------------------------------------------------------------
                    Distance matrix (angstroms):
                    1          2          3          4          5
     1  F    0.000000
     2  C    1.571437   0.000000
     3  H    2.112540   1.086251   0.000000
     4  H    2.112536   1.086259   1.829142   0.000000
     5  H    2.112928   1.086613   1.826570   1.826584   0.000000
     6  Cl   2.979758   1.408321   1.560590   1.560596   1.559487
                    6
     6  Cl   0.000000
 Stoichiometry    CH3ClF(1-)
 Framework group  C1[X(CH3ClF)]
 Deg. of freedom    12
 Full point group                 C1      NOp   1
 RotChk:  IX=2 Diff= 1.32D-04
 Largest Abelian subgroup         C1      NOp   1
 Largest concise Abelian subgroup C1      NOp   1
                         Standard orientation:                         
 ---------------------------------------------------------------------
 Center     Atomic      Atomic             Coordinates (Angstroms)
 Number     Number       Type             X           Y           Z
 ---------------------------------------------------------------------
      1          9           0       -1.873588    0.000001   -0.000123
      2          6           0       -0.302151   -0.000002    0.000510
      3          1           0       -0.043535   -0.913288    0.528684
      4          1           0       -0.043541    0.915849    0.524244
      5          1           0       -0.042624   -0.002572   -1.054652
      6         17           0        1.106170    0.000001   -0.000014
 ---------------------------------------------------------------------
 Rotational constants (GHZ):    150.1581627      4.5021271      4.5018745
 Leave Link  202 at Fri Sep 22 13:46:47 2017, MaxMem=    33554432 cpu:         0.0
 (Enter /home/unamur/ucpts/pbeaujea/gaussian//g09/l301.exe)
 Standard basis: 6-31+G(d) (6D, 7F)
 Ernie: Thresh=  0.10000D-02 Tol=  0.10000D-05 Strict=F.
 There are    67 symmetry adapted cartesian basis functions of A   symmetry.
 There are    67 symmetry adapted basis functions of A   symmetry.
    67 basis functions,   132 primitive gaussians,    67 cartesian basis functions
    18 alpha electrons       18 beta electrons
       nuclear repulsion energy       117.3793106926 Hartrees.
 IExCor=    0 DFT=F Ex=HF Corr=None ExCW=0 ScaHFX=  1.000000
 ScaDFX=  1.000000  1.000000  1.000000  1.000000 ScalE2=  1.000000  1.000000
 IRadAn=      0 IRanWt=     -1 IRanGd=            0 ICorTp=0 IEmpDi=  4
 NAtoms=    6 NActive=    6 NUniq=    6 SFac= 1.00D+00 NAtFMM=   60 NAOKFM=F Big=F
 Integral buffers will be    131072 words long.
 Raffenetti 1 integral format.
 Two-electron integral symmetry is turned on.
 Leave Link  301 at Fri Sep 22 13:46:48 2017, MaxMem=    33554432 cpu:         0.1
 (Enter /home/unamur/ucpts/pbeaujea/gaussian//g09/l302.exe)
 NPDir=0 NMtPBC=     1 NCelOv=     1 NCel=       1 NClECP=     1 NCelD=      1
         NCelK=      1 NCelE2=     1 NClLst=     1 CellRange=     0.0.
 One-electron integrals computed using PRISM.
 NBasis=    67 RedAO= T EigKep=  3.56D-04  NBF=    67
 NBsUse=    67 1.00D-06 EigRej= -1.00D+00 NBFU=    67
 Leave Link  302 at Fri Sep 22 13:46:48 2017, MaxMem=    33554432 cpu:         0.3
 (Enter /home/unamur/ucpts/pbeaujea/gaussian//g09/l303.exe)
 DipDrv:  MaxL=1.
 Leave Link  303 at Fri Sep 22 13:46:48 2017, MaxMem=    33554432 cpu:         0.0
 (Enter /home/unamur/ucpts/pbeaujea/gaussian//g09/l401.exe)
 Initial guess from the checkpoint file:  "CH3F-Cl_TS.chk"
 B after Tr=     0.000000    0.000000    0.000000
         Rot=    1.000000   -0.000046    0.000000    0.000000 Ang=  -0.01 deg.
 Guess basis will be translated and rotated to current coordinates.
 JPrj=2 DoOrth=T DoCkMO=T.
 Generating alternative initial guess.
 ExpMin= 4.38D-02 ExpMax= 2.52D+04 ExpMxC= 3.78D+03 IAcc=2 IRadAn=         4 AccDes= 0.00D+00
 Harris functional with IExCor=  205 and IRadAn=       4 diagonalized for initial guess.
 HarFok:  IExCor=  205 AccDes= 0.00D+00 IRadAn=         4 IDoV= 1 UseB2=F ITyADJ=14
 ICtDFT=  3500011 ScaDFX=  1.000000  1.000000  1.000000  1.000000
[...]
                                                                                       X                                    X        
                                                                                       X                                    X        
                                                                                       X                                    X        
                                                                                       X                                             
                                                                                       X                                             
                                                                                       X                                             
                                                                                       X                                             
                                                                                       X                                             
                                                                                       X                                             
                                                                                       X                                             
                                                                                       X                                             
                                                                                       X                                             
                                                                                       X                                             
 
 
                                                        CH3F + Cl- (reactives)
                                                            Raman Spectrum
 
     33     3                                                                 1        1       1                                     
     66     4                                                                 5        3       0                           22        
     00     1                                                                 5        0       6                           73        
     98     2                                                                 1        4       1                           02        
 
     XX     X                                                                 X        X       X                           XX        
     XX     X                                                                                  X                                     
     XX     X                                                                                                                        
     XX     X                                                                                                                        
     XX     X                                                                                                                        
     XX     X                                                                                                                        
            X                                                                                                                        
            X                                                                                                                        
            X                                                                                                                        
            X                                                                                                                        
            X                                                                                                                        
            X                                                                                                                        
            X                                                                                                                        
            X                                                                                                                        
            X                                                                                                                        
            X                                                                                                                        
            X                                                                                                                        
            X                                                                                                                        
            X                                                                                                                        
            X                                                                                                                        
 
 ***** Axes restored to original set *****
 -------------------------------------------------------------------
 Center     Atomic                   Forces (Hartrees/Bohr)
 Number     Number              X              Y              Z
 -------------------------------------------------------------------
      1        9          -0.000014920   -0.000000639   -0.000033168
      2        6          -0.000080207   -0.000003226    0.000084921
      3        1           0.000123950   -0.000097224   -0.000113140
      4        1           0.000115360    0.000107199   -0.000113190
      5        1          -0.000095473   -0.000004027   -0.000025381
      6       17          -0.000048710   -0.000002084    0.000199958
 -------------------------------------------------------------------
 Cartesian Forces:  Max     0.000199958 RMS     0.000088926
 Force constants in Cartesian coordinates: 
                1             2             3             4             5 
      1  0.701514D-02
      2  0.000000D+00  0.701141D-02
      3  0.222307D-04  0.000000D+00  0.292178D-01
      4 -0.134447D-01  0.000000D+00  0.962111D-04  0.786853D+00
      5  0.000000D+00 -0.134348D-01  0.404664D-05  0.316155D-04  0.786104D+00
      6  0.115800D-03  0.488900D-05  0.507965D-01 -0.110424D-02 -0.463821D-04
      7  0.473570D-03 -0.133764D-02  0.177311D-03 -0.171588D+00  0.164032D+00
      8 -0.134620D-02  0.174176D-02 -0.323400D-03  0.164017D+00 -0.325815D+00
      9 -0.299095D-02  0.466853D-02 -0.165919D-01  0.247408D-01 -0.388893D-01
     10  0.258443D-03  0.121295D-02  0.149597D-03 -0.145287D+00 -0.148857D+00
     11  0.122151D-02  0.195688D-02  0.337107D-03 -0.148842D+00 -0.352116D+00
     12 -0.258937D-02 -0.490267D-02 -0.165919D-01  0.213962D-01  0.408252D-01
     13  0.260003D-02  0.124866D-03 -0.415874D-03 -0.429844D+00 -0.152060D-01
     14  0.124867D-03 -0.370786D-03 -0.174518D-04 -0.152060D-01 -0.680634D-01
     15  0.549331D-02  0.230476D-03 -0.166371D-01 -0.451979D-01 -0.189637D-02
     16  0.309748D-02  0.000000D+00 -0.294755D-04 -0.266891D-01  0.000000D+00
     17  0.000000D+00  0.309555D-02 -0.122558D-05  0.000000D+00 -0.266746D-01
     18 -0.510213D-04 -0.214630D-05 -0.301934D-01  0.689311D-04  0.286089D-05
                6             7             8             9            10 
      6 -0.420432D-01
      7  0.242056D-01  0.164093D+00
      8 -0.380145D-01 -0.172941D+00  0.326758D+00
      9 -0.224860D-01 -0.246735D-01  0.388406D-01  0.549551D-01
     10  0.209363D-01  0.135713D-01  0.165449D-01 -0.266900D-02  0.136363D+00
     11  0.399086D-01 -0.142010D-01 -0.143120D-01  0.410441D-02  0.156936D+00
     12 -0.224861D-01 -0.231581D-02 -0.431355D-02  0.574150D-02 -0.213333D-01
     13 -0.441893D-01 -0.831373D-02 -0.389339D-02 -0.253909D-02 -0.628582D-02
     14 -0.185404D-02  0.268474D-01  0.763139D-02  0.411689D-02 -0.280172D-01
     15 -0.221520D-01  0.488604D-02  0.271092D-03  0.571770D-02  0.489158D-02
     16  0.358921D-04  0.176362D-02 -0.238135D-02  0.813175D-02  0.138022D-02
     17  0.144366D-05 -0.239944D-02  0.399617D-02 -0.128411D-01  0.217955D-02
     18  0.583708D-01 -0.227971D-02  0.353978D-02 -0.273363D-01 -0.197518D-02
               11            12            13            14            15 
     11  0.354488D+00
     12 -0.407710D-01  0.549550D-01
     13  0.272348D-02 -0.218531D-02  0.436356D+00
     14  0.560350D-02 -0.431512D-02  0.160313D-01  0.549397D-01
     15  0.139149D-03  0.571770D-02  0.451739D-01  0.189535D-02  0.547755D-01
     16  0.216145D-02  0.702751D-02  0.548780D-02  0.219748D-03 -0.152469D-01
     17  0.437956D-02  0.134772D-01  0.219744D-03  0.259596D-03 -0.639697D-03
     18 -0.371829D-02 -0.273362D-01  0.415575D-02  0.174365D-03 -0.274219D-01
               16            17            18 
     16  0.149600D-01
     17  0.000000D+00  0.149437D-01
     18  0.812253D-04  0.343418D-05  0.539170D-01
 FormGI is forming the generalized inverse of G from B-inverse, IUseBI=4.
 Leave Link  716 at Fri Sep 22 13:47:46 2017, MaxMem=    33554432 cpu:         0.1
 (Enter /home/unamur/ucpts/pbeaujea/gaussian//g09/l103.exe)

 GradGradGradGradGradGradGradGradGradGradGradGradGradGradGradGradGradGrad
 Berny optimization.
 Red2BG is reusing G-inverse.
 Internal  Forces:  Max     0.000087712 RMS     0.000030120
 Search for a saddle point.
 Step number   1 out of a maximum of    2
 All quantities printed in internal units (Hartrees-Bohrs-Radians)
 Swapping is turned off.
 Second derivative matrix not updated -- analytic derivatives used.
 ITU=  0
     Eigenvalues ---   -0.01156   0.01127   0.01148   0.01354   0.01851
     Eigenvalues ---    0.01855   0.02266   0.03837   0.04101   0.28574
     Eigenvalues ---    0.30691   0.30833
 Eigenvectors required to have negative eigenvalues:
                          R1        R8        D9        D6        D3
   1                    0.43336  -0.39935  -0.36890   0.18586  -0.18586
                          D4        D7        D10       D11       R3
   1                    0.18477  -0.18477  -0.18445   0.18445   0.17296
 Angle between quadratic step and forces=  48.73 degrees.
 Linear search not attempted -- option 19 set.
 Iteration  1 RMS(Cart)=  0.00051190 RMS(Int)=  0.00000042
 Iteration  2 RMS(Cart)=  0.00000020 RMS(Int)=  0.00000026
 ITry= 1 IFail=0 DXMaxC= 1.82D-03 DCOld= 1.00D+10 DXMaxT= 3.00D-01 DXLimC= 3.00D+00 Rises=F
 Variable       Old X    -DE/DX   Delta X   Delta X   Delta X     New X
                                 (Linear)    (Quad)   (Total)
    R1        4.01824   0.00000   0.00000  -0.00168  -0.00168   4.01655
    R2        4.25740  -0.00002   0.00000  -0.00086  -0.00086   4.25653
    R3        4.25740  -0.00002   0.00000  -0.00086  -0.00086   4.25653
    R4        4.25679  -0.00001   0.00000  -0.00025  -0.00025   4.25654
    R5        2.00714  -0.00009   0.00000  -0.00042  -0.00042   2.00672
    R6        2.00714  -0.00009   0.00000  -0.00042  -0.00042   2.00672
    R7        2.00692  -0.00006   0.00000  -0.00020  -0.00020   2.00672
    R8        4.03257  -0.00002   0.00000  -0.00122  -0.00122   4.03136
    R9        4.72810  -0.00009   0.00000  -0.00286  -0.00286   4.72524
   R10        4.72810  -0.00009   0.00000  -0.00286  -0.00286   4.72524
   R11        4.72596  -0.00003   0.00000  -0.00072  -0.00072   4.72524
    A1        0.83373  -0.00003   0.00000   0.00022   0.00022   0.83395
    A2        0.83400  -0.00003   0.00000  -0.00005  -0.00005   0.83395
    A3        0.83400  -0.00003   0.00000  -0.00005  -0.00005   0.83395
    A4        1.44340   0.00000   0.00000   0.00041   0.00041   1.44381
    A5        1.44340   0.00000   0.00000   0.00041   0.00041   1.44381
    A6        1.44312   0.00000   0.00000   0.00069   0.00069   1.44381
    A7        3.14208  -0.00001   0.00000  -0.00049  -0.00049   3.14159
    A8        3.14074   0.00001   0.00000   0.00086   0.00086   3.14159
    A9        2.06596   0.00003   0.00000   0.00087   0.00087   2.06683
   A10        2.06694  -0.00001   0.00000  -0.00011  -0.00011   2.06683
   A11        1.69869  -0.00001   0.00000  -0.00090  -0.00090   1.69778
   A12        2.06694  -0.00001   0.00000  -0.00011  -0.00011   2.06683
   A13        1.69869  -0.00001   0.00000  -0.00090  -0.00090   1.69778
   A14        1.69750   0.00001   0.00000   0.00029   0.00029   1.69778
   A15        1.00831   0.00002   0.00000   0.00067   0.00067   1.00897
   A16        1.00831   0.00002   0.00000   0.00067   0.00067   1.00897
   A17        1.00927   0.00000   0.00000  -0.00029  -0.00029   1.00897
   A18        0.74637  -0.00001   0.00000   0.00051   0.00051   0.74689
   A19        0.74674  -0.00002   0.00000   0.00015   0.00015   0.74689
   A20        0.74674  -0.00002   0.00000   0.00015   0.00015   0.74689
    D1       -1.15682   0.00000   0.00000  -0.00039  -0.00039  -1.15721
    D2        3.14074   0.00001   0.00000   0.00086   0.00086  -3.14159
    D3       -1.78809   0.00001   0.00000   0.00136   0.00136  -1.78673
    D4        1.78695   0.00001   0.00000  -0.00022  -0.00022   1.78673
    D5       -3.14074  -0.00001   0.00000  -0.00086  -0.00086   3.14159
    D6        1.78809  -0.00001   0.00000  -0.00136  -0.00136   1.78673
    D7       -1.78695  -0.00001   0.00000   0.00022   0.00022  -1.78673
    D8       -3.14159   0.00000   0.00000   0.00000   0.00000   3.14159
    D9        2.70790   0.00002   0.00000   0.00182   0.00182   2.70972
   D10       -1.78764   0.00001   0.00000   0.00091   0.00091  -1.78673
   D11        1.78765  -0.00001   0.00000  -0.00091  -0.00091   1.78673
   D12       -2.09390  -0.00003   0.00000  -0.00050  -0.00050  -2.09439
   D13        2.09464  -0.00001   0.00000  -0.00025  -0.00025   2.09440
   D14       -2.09465   0.00001   0.00000   0.00025   0.00025  -2.09440
   D15        0.56710  -0.00002   0.00000  -0.00021  -0.00021   0.56689
   D16       -0.56689   0.00000   0.00000   0.00000   0.00000  -0.56689
   D17       -0.56710   0.00002   0.00000   0.00021   0.00021  -0.56689
   D18        0.56689   0.00000   0.00000   0.00000   0.00000   0.56689
   D19        0.56658   0.00000   0.00000   0.00031   0.00031   0.56689
   D20       -0.56658   0.00000   0.00000  -0.00031  -0.00031  -0.56689
         Item               Value     Threshold  Converged?
 Maximum Force            0.000088     0.000450     YES
 RMS     Force            0.000030     0.000300     YES
 Maximum Displacement     0.001821     0.001800     NO 
 RMS     Displacement     0.000512     0.001200     YES
 Predicted change in Energy=-4.476824D-07
 GradGradGradGradGradGradGradGradGradGradGradGradGradGradGradGradGradGrad

 Leave Link  103 at Fri Sep 22 13:47:46 2017, MaxMem=    33554432 cpu:         0.0
 (Enter /home/unamur/ucpts/pbeaujea/gaussian//g09/l9999.exe)
 1\1\GINC-LMWN108\Freq\RHF\6-31+G(d)\C1H3Cl1F1(1-)\ROOT\22-Sep-2017\0\\
 #P Geom=AllCheck Guess=TCheck SCRF=Check GenChk RHF/6-31+G(d) Freq\\CH
 3F + Cl- (reactives)\\-1,1\F,0.0032963418,0.0001386461,1.8552045878\C,
 -0.0003261293,-0.0000140194,-0.2711517519\H,-0.5649619093,0.8892903082
 ,-0.1353041797\H,-0.4884839187,-0.933490077,-0.1353039388\H,1.05234774
 4,0.0441529998,-0.1377178139\Cl,-0.0018721284,-0.0000778577,-2.4050969
 036\\Version=AM64L-G09RevD.01\State=1-A\HF=-598.5311034\RMSD=5.869e-10
 \RMSF=8.893e-05\ZeroPoint=0.0407583\Thermal=0.0451518\Dipole=-0.003483
 8,-0.000147,-1.7182704\DipoleDeriv=-0.7963218,0.0000001,-0.0018,0.0000
 001,-0.7963242,-0.0000759,-0.0013288,-0.0000557,-1.8227812,0.2116495,-
 0.0000178,0.0036877,-0.0000178,0.212073,0.0001545,0.0032121,0.0001341,
 3.2572811,0.0671691,0.0196072,-0.018579,0.0196073,0.0487477,0.0286704,
 -0.0068922,0.0104126,-0.1919925,0.0703132,-0.0177944,-0.0161122,-0.017
 7945,0.0456036,-0.0301261,-0.0059957,-0.0109532,-0.1919923,0.0368093,-
 0.0017951,0.033607,-0.0017951,0.0795185,0.0014101,0.0122153,0.0005126,
 -0.192614,-0.5896193,0.,-0.0008036,0.,-0.5896186,-0.000033,-0.0012107,
 -0.0000505,-1.8579011\Polar=23.8164238,-0.0000094,23.8166628,0.0284351
 ,0.0011841,55.3109523\PolarDeriv=-0.1786663,-0.023361,0.1853648,2.5909
 123,0.0000147,-0.0121838,-0.0235617,0.1901332,0.0238434,0.0000147,2.59
 05646,-0.0005126,-0.3774271,0.0000354,-0.3782722,-0.0105717,-0.0004459
 ,-3.0328514,-2.5010535,-0.3165043,2.504072,-0.4735047,0.000263,0.02170
 45,-0.3164559,2.5029605,0.3165776,0.000263,-0.4797686,0.0009027,0.4441
 676,0.000219,0.4389689,0.0366456,0.0015416,20.6662843,-1.9422805,1.690
 3956,-1.8285404,1.0717375,-0.659913,-1.6294879,1.5166986,-1.9372319,4.
 4214584,-0.6585472,1.6947294,2.5615101,0.1564501,-0.1556033,0.3038766,
 -0.9393372,1.4767,0.6369371,-1.5517859,-1.5305899,-1.7083667,0.9660549
 ,0.59866,-1.4091916,-1.3483985,-1.8021255,-4.8847578,0.5972935,1.80041
 29,-2.689002,0.1315086,0.141114,0.3288208,-0.8123387,-1.5501974,0.6369
 481,6.3161273,0.1970339,0.7151166,2.1047027,0.060961,3.0272413,0.18851
 36,0.91821,0.1064954,0.0609617,0.6543049,0.1270129,0.3938678,0.0142001
 ,0.0560146,1.740382,0.0730201,0.6104609,-0.1423411,-0.0169743,0.132353
 6,-6.2599027,0.0000143,0.0019175,-0.0167961,0.1280538,0.016383,0.00001
 43,-6.2602431,0.0000889,-0.748567,0.0000348,-0.7494087,-0.01478,-0.000
 6183,-19.5177791\HyperPolar=5.4964366,0.7065069,-5.6315521,-0.7121578,
 -29.6537337,-0.0009586,-29.6308437,-0.4694025,-0.0198739,-223.1978201\
 PG=C01 [X(C1H3Cl1F1)]\NImag=1\\0.00701514,0.00000015,0.00701141,0.0000
 2223,0.00000092,0.02921782,-0.01344466,-0.00000041,0.00009621,0.786852
 85,-0.00000041,-0.01343481,0.00000405,0.00003162,0.78610402,0.00011580
 ,0.00000489,0.05079648,-0.00110424,-0.00004638,-0.04204318,0.00047357,
 -0.00133764,0.00017731,-0.17158784,0.16403191,0.02420563,0.16409305,-0
 .00134620,0.00174176,-0.00032340,0.16401712,-0.32581526,-0.03801454,-0
 .17294113,0.32675797,-0.00299095,0.00466853,-0.01659194,0.02474076,-0.
 03888932,-0.02248602,-0.02467346,0.03884062,0.05495509,0.00025844,0.00
 121295,0.00014960,-0.14528722,-0.14885652,0.02093626,0.01357133,0.0165
 4495,-0.00266900,0.13636305,0.00122151,0.00195688,0.00033711,-0.148841
 72,-0.35211596,0.03990862,-0.01420103,-0.01431203,0.00410441,0.1569363
 2,0.35448805,-0.00258937,-0.00490267,-0.01659192,0.02139624,0.04082516
 ,-0.02248609,-0.00231581,-0.00431355,0.00574150,-0.02133326,-0.0407710
 0,0.05495505,0.00260003,0.00012487,-0.00041587,-0.42984404,-0.01520599
 ,-0.04418934,-0.00831373,-0.00389339,-0.00253909,-0.00628582,0.0027234
 8,-0.00218531,0.43635577,0.00012487,-0.00037079,-0.00001745,-0.0152060
 0,-0.06806339,-0.00185404,0.02684735,0.00763139,0.00411689,-0.02801725
 ,0.00560350,-0.00431512,0.01603128,0.05493969,0.00549331,0.00023048,-0
 .01663708,-0.04519790,-0.00189637,-0.02215196,0.00488604,0.00027109,0.
 00571770,0.00489158,0.00013915,0.00571770,0.04517386,0.00189535,0.0547
 7550,0.00309748,0.00000008,-0.00002948,-0.02668909,-0.00000061,0.00003
 589,0.00176362,-0.00238135,0.00813175,0.00138022,0.00216145,0.00702751
 ,0.00548780,0.00021975,-0.01524690,0.01495997,0.00000008,0.00309555,-0
 .00000123,-0.00000061,-0.02667459,0.00000144,-0.00239944,0.00399617,-0
 .01284113,0.00217955,0.00437956,0.01347718,0.00021974,0.00025960,-0.00
 063970,0.00000068,0.01494372,-0.00005102,-0.00000215,-0.03019336,0.000
 06893,0.00000286,0.05837077,-0.00227971,0.00353978,-0.02733632,-0.0019
 7518,-0.00371829,-0.02733624,0.00415575,0.00017436,-0.02742186,0.00008
 123,0.00000343,0.05391702\\0.00001492,0.00000064,0.00003317,0.00008021
 ,0.00000323,-0.00008492,-0.00012395,0.00009722,0.00011314,-0.00011536,
 -0.00010720,0.00011319,0.00009547,0.00000403,0.00002538,0.00004871,0.0
 0000208,-0.00019996\\\@


 GROWING OLD ISN'T SO BAD -- WHEN YOU CONSIDER THE ALTERNATIVE.

                     -- MAURICE CHEVALIER
 Job cpu time:       0 days  0 hours  0 minutes 10.8 seconds.
 File lengths (MBytes):  RWF=      7 Int=      0 D2E=      0 Chk=      2 Scr=      1
 Normal termination of Gaussian 09 at Fri Sep 22 13:47:46 2017.
