field(1)=O1(-1x)                                                        
Force     RHF                                                         Gen                 
Number of atoms                            I                3
Info1-9                                    I   N=           9
          31          31           0           0           0         101
           5           1           2
Charge                                     I                0
Multiplicity                               I                1
Number of electrons                        I               10
Number of alpha electrons                  I                5
Number of beta electrons                   I                5
Number of basis functions                  I                7
Number of independent functions            I                7
Number of point charges in /Mol/           I                0
Number of translation vectors              I                0
Atomic numbers                             I   N=           3
           8           1           1
Nuclear charges                            R   N=           3
  8.00000000E+00  1.00000000E+00  1.00000000E+00
Current cartesian coordinates              R   N=           9
 -9.99999606E-03  0.00000000E+00  2.19030257E-01  0.00000000E+00  1.45230399E+00
 -8.76121009E-01  0.00000000E+00 -1.45230399E+00 -8.76121009E-01
Force Field                                I                0
Int Atom Types                             I   N=           3
           0           0           0
MM charges                                 R   N=           3
  0.00000000E+00  0.00000000E+00  0.00000000E+00
Integer atomic weights                     I   N=           3
          16           1           1
Real atomic weights                        R   N=           3
  1.59949146E+01  1.00782504E+00  1.00782504E+00
Atom fragment info                         I   N=           3
           0           0           0
Atom residue num                           I   N=           3
           0           0           0
Nuclear spins                              I   N=           3
           0           1           1
Nuclear ZEff                               R   N=           3
 -5.60000000E+00 -1.00000000E+00 -1.00000000E+00
Nuclear ZNuc                               R   N=           3
  8.00000000E+00  1.00000000E+00  1.00000000E+00
Nuclear QMom                               R   N=           3
  0.00000000E+00  0.00000000E+00  0.00000000E+00
Nuclear GFac                               R   N=           3
  0.00000000E+00  2.79284600E+00  2.79284600E+00
MicOpt                                     I   N=           3
          -1          -1          -1
Number of contracted shells                I                4
Number of primitive shells                 I               12
Pure/Cartesian d shells                    I                0
Pure/Cartesian f shells                    I                0
Highest angular momentum                   I                1
Largest degree of contraction              I                3
Shell types                                I   N=           4
           0          -1           0           0
Number of primitives per shell             I   N=           4
           3           3           3           3
Shell to atom map                          I   N=           4
           1           1           2           3
Primitive exponents                        R   N=          12
  1.30709320E+02  2.38088610E+01  6.44360830E+00  5.03315130E+00  1.16959610E+00
  3.80389000E-01  3.42525090E+00  6.23913700E-01  1.68855400E-01  3.42525090E+00
  6.23913700E-01  1.68855400E-01
Contraction coefficients                   R   N=          12
  1.54328969E-01  5.35328136E-01  4.44634536E-01 -9.99672287E-02  3.99512825E-01
  7.00115461E-01  1.54328970E-01  5.35328141E-01  4.44634541E-01  1.54328970E-01
  5.35328141E-01  4.44634541E-01
P(S=P) Contraction coefficients            R   N=          12
  0.00000000E+00  0.00000000E+00  0.00000000E+00  1.55916268E-01  6.07683714E-01
  3.91957386E-01  0.00000000E+00  0.00000000E+00  0.00000000E+00  0.00000000E+00
  0.00000000E+00  0.00000000E+00
Coordinates of each shell                  R   N=          12
 -9.99999606E-03  0.00000000E+00  2.19030257E-01 -9.99999606E-03  0.00000000E+00
  2.19030257E-01  0.00000000E+00  1.45230399E+00 -8.76121009E-01  0.00000000E+00
 -1.45230399E+00 -8.76121009E-01
Constraint Structure                       R   N=           9
 -9.99999606E-03  0.00000000E+00  2.19030257E-01  0.00000000E+00  1.45230399E+00
 -8.76121009E-01  0.00000000E+00 -1.45230399E+00 -8.76121009E-01
Num ILSW                                   I              100
ILSW                                       I   N=         100
           0           0           0           0           2           0
           0           0           0           0           0          -1
           0           0           0           0           2           0
           0           0           0           0           1           0
           1           1           0           0           0           0
           0           0      100000           0          -1           0
           0           0           0           0           0           0
           0           0           0           1           0           0
           0           0           1           0           0           0
           0           0           4          41           0           0
           0           0           0           0           0           0
           0           0           0           3           0           0
           0           0           0           0           0           0
           0           0           0           0           0           0
           0           0           0           0           0           0
           0           0           0           0           0           0
           0           0           0           0
Num RLSW                                   I               41
RLSW                                       R   N=          41
  1.00000000E+00  1.00000000E+00  1.00000000E+00  1.00000000E+00  1.00000000E+00
  0.00000000E+00  0.00000000E+00  1.00000000E+00  0.00000000E+00  0.00000000E+00
  0.00000000E+00  0.00000000E+00  1.00000000E+00  0.00000000E+00  0.00000000E+00
  0.00000000E+00  0.00000000E+00  1.00000000E+00  0.00000000E+00  0.00000000E+00
  0.00000000E+00  0.00000000E+00  1.00000000E+00  0.00000000E+00  0.00000000E+00
  0.00000000E+00  0.00000000E+00  1.00000000E+00  0.00000000E+00  0.00000000E+00
  0.00000000E+00  0.00000000E+00  1.00000000E+00  0.00000000E+00  0.00000000E+00
  0.00000000E+00  0.00000000E+00  0.00000000E+00  1.00000000E+00  1.00000000E+00
  0.00000000E+00
MxBond                                     I                2
NBond                                      I   N=           3
           2           1           1
IBond                                      I   N=           6
           2           3           1           0           1           0
RBond                                      R   N=           6
  1.00000000E+00  1.00000000E+00  1.00000000E+00  0.00000000E+00  1.00000000E+00
  0.00000000E+00
Virial Ratio                               R      2.005183535804279E+00
SCF Energy                                 R     -7.496307185261406E+01
Total Energy                               R     -7.496307185261406E+01
RMS Force                                  R      2.495372657965395E-02
RMS Density                                R      5.063880965753424E-12
External E-field                           R   N=          35
  0.00000000E+00  0.00000000E+00  0.00000000E+00  0.00000000E+00  0.00000000E+00
  0.00000000E+00  0.00000000E+00  0.00000000E+00  0.00000000E+00  0.00000000E+00
  0.00000000E+00  0.00000000E+00  0.00000000E+00  0.00000000E+00  0.00000000E+00
  0.00000000E+00  0.00000000E+00  0.00000000E+00  0.00000000E+00  0.00000000E+00
  0.00000000E+00  0.00000000E+00  0.00000000E+00  0.00000000E+00  0.00000000E+00
  0.00000000E+00  0.00000000E+00  0.00000000E+00  0.00000000E+00  0.00000000E+00
  0.00000000E+00  0.00000000E+00  0.00000000E+00  0.00000000E+00  0.00000000E+00
IOpCl                                      I                0
IROHF                                      I                0
Alpha Orbital Energies                     R   N=           7
 -2.02403114E+01 -1.26392565E+00 -6.17383838E-01 -4.48854578E-01 -3.89764297E-01
  5.97636334E-01  7.40293056E-01
Alpha MO coefficients                      R   N=          49
  9.94138787E-01  2.64678553E-02  3.87860512E-05  3.84968656E-16 -4.24766098E-03
 -5.92243538E-03 -5.92243538E-03 -2.33105159E-01  8.35753162E-01  1.15243070E-03
  6.82365729E-16 -1.26208644E-01  1.58617184E-01  1.58617184E-01 -5.57069670E-16
  2.95758906E-15 -1.82230862E-15  6.04213483E-01  4.38599212E-15  4.44543887E-01
 -4.44543887E-01 -1.01973109E-01  5.30766980E-01 -7.12267175E-03 -3.13670531E-15
  7.80040606E-01 -2.78353780E-01 -2.78353780E-01 -1.63954371E-16  2.67805065E-15
  9.99958314E-01  1.12314218E-15  9.13077445E-03 -2.44015618E-15 -3.26851543E-15
 -1.32273405E-01  8.78652749E-01  6.70245575E-03  1.44911493E-14 -7.34020579E-01
 -7.94803141E-01 -7.94803141E-01  1.89458135E-15 -1.25460221E-14  1.57432891E-16
  9.91653999E-01  1.01666753E-14 -8.32807189E-01  8.32807189E-01
Total SCF Density                          R   N=          28
  2.10609691E+00 -4.45259222E-01  1.96179496E+00  9.92484317E-04 -5.63260957E-03
  1.99993738E+00  4.13839777E-16  1.40526838E-15  9.03499015E-17  7.30147865E-01
 -1.08692089E-01  6.16856193E-01  6.85761834E-03  2.51635104E-16  1.24898676E+00
 -2.89552126E-02 -3.06658722E-02  4.33037642E-03  5.37198821E-01 -4.74241909E-01
  6.00589163E-01 -2.89552126E-02 -3.06658722E-02  4.33037642E-03 -5.37198821E-01
 -4.74241909E-01 -1.89887909E-01  6.00589163E-01
Mulliken Charges                           R   N=           3
 -3.63726764E-01  1.81863382E-01  1.81863382E-01
ONIOM Charges                              I   N=          16
           0           0           0           0           0           0
           0           0           0           0           0           0
           0           0           0           0
ONIOM Multiplicities                       I   N=          16
           1           0           0           0           0           0
           0           0           0           0           0           0
           0           0           0           0
Atom Layers                                I   N=           3
           1           1           1
Atom Modifiers                             I   N=           3
           0           0           0
Force Field                                I                0
Int Atom Modified Types                    I   N=           3
           0           0           0
Link Atoms                                 I   N=           3
           0           0           0
Atom Modified MM Charges                   R   N=           3
  0.00000000E+00  0.00000000E+00  0.00000000E+00
Link Distances                             R   N=          12
  0.00000000E+00  0.00000000E+00  0.00000000E+00  0.00000000E+00  0.00000000E+00
  0.00000000E+00  0.00000000E+00  0.00000000E+00  0.00000000E+00  0.00000000E+00
  0.00000000E+00  0.00000000E+00
Cartesian Gradient                         R   N=           9
  5.33922820E-04 -6.66133815E-16 -5.84726483E-02 -2.66961410E-04 -1.54141611E-02
  2.92363241E-02 -2.66961410E-04  1.54141611E-02  2.92363241E-02
Dipole Moment                              R   N=           3
  6.14090755E-03 -8.88178420E-16 -6.72522533E-01
Quadrupole Moment                          R   N=           6
 -6.12735984E-01  7.17116495E-01 -1.04380512E-01  3.94668861E-16  7.38815651E-04
 -5.55111512E-16
QEq coupling tensors                       R   N=          18
  2.65707597E+00 -4.34548231E-16 -2.37570766E+00  2.68336277E-02 -1.11022302E-16
 -2.81368304E-01  2.75620687E-01 -3.00510846E-03 -2.60968407E-01  2.65074849E-03
  3.29104963E-01 -1.46522798E-02  2.75620687E-01  3.00510846E-03 -2.60968407E-01
  2.65074849E-03 -3.29104963E-01 -1.46522798E-02
