 Entering Gaussian System, Link 0=/home/acad/unamur-ucpts/pbeaujea/gaussian/g09/g09
 Initial command:
 /home/acad/unamur-ucpts/pbeaujea/gaussian/g09/l1.exe "/SCRATCH/acad/nlopt/pbeaujea/1482369[4].frontal2/Gau-28812.inp" -scrdir="/SCRATCH/acad/nlopt/pbeaujea/1482369[4].frontal2/"
 Entering Link 1 = /home/acad/unamur-ucpts/pbeaujea/gaussian/g09/l1.exe PID=     28816.
  
 Copyright (c) 1988,1990,1992,1993,1995,1998,2003,2009,2013,
            Gaussian, Inc.  All Rights Reserved.
  
 This is part of the Gaussian(R) 09 program.  It is based on
 the Gaussian(R) 03 system (copyright 2003, Gaussian, Inc.),
 the Gaussian(R) 98 system (copyright 1998, Gaussian, Inc.),
 the Gaussian(R) 94 system (copyright 1995, Gaussian, Inc.),
 the Gaussian 92(TM) system (copyright 1992, Gaussian, Inc.),
 the Gaussian 90(TM) system (copyright 1990, Gaussian, Inc.),
 the Gaussian 88(TM) system (copyright 1988, Gaussian, Inc.),
 the Gaussian 86(TM) system (copyright 1986, Carnegie Mellon
 University), and the Gaussian 82(TM) system (copyright 1983,
 Carnegie Mellon University). Gaussian is a federally registered
 trademark of Gaussian, Inc.
  
 This software contains proprietary and confidential information,
 including trade secrets, belonging to Gaussian, Inc.
  
 This software is provided under written license and may be
 used, copied, transmitted, or stored only in accord with that
 written license.
  
 The following legend is applicable only to US Government
 contracts under FAR:
  
                    RESTRICTED RIGHTS LEGEND
  
 Use, reproduction and disclosure by the US Government is
 subject to restrictions as set forth in subparagraphs (a)
 and (c) of the Commercial Computer Software - Restricted
 Rights clause in FAR 52.227-19.
  
 Gaussian, Inc.
 340 Quinnipiac St., Bldg. 40, Wallingford CT 06492
  
  
 ---------------------------------------------------------------
 Warning -- This program may not be used in any manner that
 competes with the business of Gaussian, Inc. or will provide
 assistance to any competitor of Gaussian, Inc.  The licensee
 of this program is prohibited from giving any competitor of
 Gaussian, Inc. access to this program.  By using this program,
 the user acknowledges that Gaussian, Inc. is engaged in the
 business of creating and licensing software in the field of
 computational chemistry and represents and warrants to the
 licensee that it is not a competitor of Gaussian, Inc. and that
 it will not use this program in any manner prohibited above.
 ---------------------------------------------------------------
  

 Cite this work as:
 Gaussian 09, Revision D.01,
 M. J. Frisch, G. W. Trucks, H. B. Schlegel, G. E. Scuseria, 
 M. A. Robb, J. R. Cheeseman, G. Scalmani, V. Barone, B. Mennucci, 
 G. A. Petersson, H. Nakatsuji, M. Caricato, X. Li, H. P. Hratchian, 
 A. F. Izmaylov, J. Bloino, G. Zheng, J. L. Sonnenberg, M. Hada, 
 M. Ehara, K. Toyota, R. Fukuda, J. Hasegawa, M. Ishida, T. Nakajima, 
 Y. Honda, O. Kitao, H. Nakai, T. Vreven, J. A. Montgomery, Jr., 
 J. E. Peralta, F. Ogliaro, M. Bearpark, J. J. Heyd, E. Brothers, 
 K. N. Kudin, V. N. Staroverov, T. Keith, R. Kobayashi, J. Normand, 
 K. Raghavachari, A. Rendell, J. C. Burant, S. S. Iyengar, J. Tomasi, 
 M. Cossi, N. Rega, J. M. Millam, M. Klene, J. E. Knox, J. B. Cross, 
 V. Bakken, C. Adamo, J. Jaramillo, R. Gomperts, R. E. Stratmann, 
 O. Yazyev, A. J. Austin, R. Cammi, C. Pomelli, J. W. Ochterski, 
 R. L. Martin, K. Morokuma, V. G. Zakrzewski, G. A. Voth, 
 P. Salvador, J. J. Dannenberg, S. Dapprich, A. D. Daniels, 
 O. Farkas, J. B. Foresman, J. V. Ortiz, J. Cioslowski, 
 and D. J. Fox, Gaussian, Inc., Wallingford CT, 2013.
 
 ******************************************
 Gaussian 09:  AM64L-G09RevD.01 24-Apr-2013
                22-Oct-2017 
 ******************************************
 %nprocshared=4
 Will use up to    4 processors via shared memory.
 %chk=water_test_0002b
 %mem=3Gb
 ----------------------------------------------------------------------
 #P HF gen nosym scf=(Conver=11,NoVarAcc,MaxCyc=600,vshift=1000) IOP(9/
 6=600,9/9=11) force
 ----------------------------------------------------------------------
 1/10=7,30=1,38=1/1,3;
 2/12=2,15=1,17=6,18=5,40=1/2;
 3/5=7,11=9,16=1,25=1,30=1,71=1/1,2,3;
 4//1;
 5/5=2,6=11,7=600,10=1000,38=1/2;
 6/7=2,8=2,9=2,10=2,28=1/1;
 7/29=1,30=1/1,2,3,16;
 1/10=7,30=1/3;
 99//99;
 Leave Link    1 at Sun Oct 22 22:13:51 2017, MaxMem=   402653184 cpu:         0.2
 (Enter /home/acad/unamur-ucpts/pbeaujea/gaussian/g09/l101.exe)
 ----------------
 field(1)=O1(-1x)
 ----------------
 Symbolic Z-matrix:
 Charge =  0 Multiplicity = 1
 O                    -0.00529   0.        0.11591 
 H                     0.        0.76853  -0.46362 
 H                     0.       -0.76853  -0.46362 
 
 NAtoms=      3 NQM=        3 NQMF=       0 NMMI=      0 NMMIF=      0
                NMic=       0 NMicF=      0.
                    Isotopes and Nuclear Properties:
 (Nuclear quadrupole moments (NQMom) in fm**2, nuclear magnetic moments (NMagM)
  in nuclear magnetons)

  Atom         1           2           3
 IAtWgt=          16           1           1
 AtmWgt=  15.9949146   1.0078250   1.0078250
 NucSpn=           0           1           1
 AtZEff=   0.0000000   0.0000000   0.0000000
 NQMom=    0.0000000   0.0000000   0.0000000
 NMagM=    0.0000000   2.7928460   2.7928460
 AtZNuc=   8.0000000   1.0000000   1.0000000
 Leave Link  101 at Sun Oct 22 22:13:51 2017, MaxMem=   402653184 cpu:         0.3
 (Enter /home/acad/unamur-ucpts/pbeaujea/gaussian/g09/l103.exe)

 GradGradGradGradGradGradGradGradGradGradGradGradGradGradGradGradGradGrad
 Berny optimization.
 Initialization pass.
 Trust Radius=3.00D-01 FncErr=1.00D-07 GrdErr=1.00D-07
 Number of steps in this run=      2 maximum allowed number of steps=      2.
 GradGradGradGradGradGradGradGradGradGradGradGradGradGradGradGradGradGrad

 Leave Link  103 at Sun Oct 22 22:13:51 2017, MaxMem=   402653184 cpu:         0.1
 (Enter /home/acad/unamur-ucpts/pbeaujea/gaussian/g09/l202.exe)
                          Input orientation:                          
 ---------------------------------------------------------------------
 Center     Atomic      Atomic             Coordinates (Angstroms)
 Number     Number       Type             X           Y           Z
 ---------------------------------------------------------------------
      1          8           0       -0.005292    0.000000    0.115906
      2          1           0        0.000000    0.768526   -0.463623
      3          1           0        0.000000   -0.768526   -0.463623
 ---------------------------------------------------------------------
                    Distance matrix (angstroms):
                    1          2          3
     1  O    0.000000
     2  H    0.962556   0.000000
     3  H    0.962556   1.537052   0.000000
 Symmetry turned off by external request.
 Stoichiometry    H2O
 Framework group  C2V[C2(O),SGV(H2)]
 Deg. of freedom     2
 Full point group                 C2V     NOp   4
 Rotational constants (GHZ):    840.5446151    424.5068823    282.0572718
 Leave Link  202 at Sun Oct 22 22:13:51 2017, MaxMem=   402653184 cpu:         0.0
 (Enter /home/acad/unamur-ucpts/pbeaujea/gaussian/g09/l301.exe)
 General basis read from cards:  (5D, 7F)
 Centers:       1
 S 3 1.00
     Exponent=  1.3070932000D+02 Coefficients=  1.5432897000D-01
     Exponent=  2.3808861000D+01 Coefficients=  5.3532814000D-01
     Exponent=  6.4436083000D+00 Coefficients=  4.4463454000D-01
 SP 3 1.00
     Exponent=  5.0331513000D+00 Coefficients= -9.9967230000D-02  1.5591627000D-01
     Exponent=  1.1695961000D+00 Coefficients=  3.9951283000D-01  6.0768372000D-01
     Exponent=  3.8038900000D-01 Coefficients=  7.0011547000D-01  3.9195739000D-01
 ****
 Centers:       2      3
 S 3 1.00
     Exponent=  3.4252509000D+00 Coefficients=  1.5432897000D-01
     Exponent=  6.2391370000D-01 Coefficients=  5.3532814000D-01
     Exponent=  1.6885540000D-01 Coefficients=  4.4463454000D-01
 ****
 Ernie: Thresh=  0.10000D-02 Tol=  0.10000D-05 Strict=F.
     7 basis functions,    21 primitive gaussians,     7 cartesian basis functions
     5 alpha electrons        5 beta electrons
       nuclear repulsion energy         9.1404789488 Hartrees.
 IExCor=    0 DFT=F Ex=HF Corr=None ExCW=0 ScaHFX=  1.000000
 ScaDFX=  1.000000  1.000000  1.000000  1.000000 ScalE2=  1.000000  1.000000
 IRadAn=      0 IRanWt=     -1 IRanGd=            0 ICorTp=0 IEmpDi=  4
 NAtoms=    3 NActive=    3 NUniq=    3 SFac= 1.00D+00 NAtFMM=   60 NAOKFM=F Big=F
 Integral buffers will be    131072 words long.
 Raffenetti 1 integral format.
 Two-electron integral symmetry is turned off.
 Leave Link  301 at Sun Oct 22 22:13:51 2017, MaxMem=   402653184 cpu:         0.2
 (Enter /home/acad/unamur-ucpts/pbeaujea/gaussian/g09/l302.exe)
 NPDir=0 NMtPBC=     1 NCelOv=     1 NCel=       1 NClECP=     1 NCelD=      1
         NCelK=      1 NCelE2=     1 NClLst=     1 CellRange=     0.0.
 One-electron integrals computed using PRISM.
 NBasis=     7 RedAO= T EigKep=  3.46D-01  NBF=     7
 NBsUse=     7 1.00D-06 EigRej= -1.00D+00 NBFU=     7
 Leave Link  302 at Sun Oct 22 22:13:51 2017, MaxMem=   402653184 cpu:         0.4
 (Enter /home/acad/unamur-ucpts/pbeaujea/gaussian/g09/l303.exe)
 DipDrv:  MaxL=1.
 Leave Link  303 at Sun Oct 22 22:13:51 2017, MaxMem=   402653184 cpu:         0.1
 (Enter /home/acad/unamur-ucpts/pbeaujea/gaussian/g09/l401.exe)
 ExpMin= 1.69D-01 ExpMax= 1.31D+02 ExpMxC= 1.31D+02 IAcc=1 IRadAn=         1 AccDes= 0.00D+00
 Harris functional with IExCor=  205 and IRadAn=       1 diagonalized for initial guess.
 HarFok:  IExCor=  205 AccDes= 0.00D+00 IRadAn=         1 IDoV= 1 UseB2=F ITyADJ=14
 ICtDFT=  3500011 ScaDFX=  1.000000  1.000000  1.000000  1.000000
 FoFCou: FMM=F IPFlag=           0 FMFlag=      100000 FMFlg1=           0
         NFxFlg=           0 DoJE=T BraDBF=F KetDBF=T FulRan=T
         wScrn=  0.000000 ICntrl=     500 IOpCl=  0 I1Cent=   200000004 NGrid=           0
         NMat0=    1 NMatS0=      1 NMatT0=    0 NMatD0=    1 NMtDS0=    0 NMtDT0=    0
 Symmetry not used in FoFCou.
 Harris En= -75.0364573346217    
 JPrj=0 DoOrth=F DoCkMO=F.
 Leave Link  401 at Sun Oct 22 22:13:51 2017, MaxMem=   402653184 cpu:         0.3
 (Enter /home/acad/unamur-ucpts/pbeaujea/gaussian/g09/l502.exe)
 Closed shell SCF:
 Using DIIS extrapolation, IDIIS=  1040.
 Two-electron integral symmetry not used.
 Keep R1 ints in memory in canonical form, NReq=1168695.
 IVT=      366107 IEndB=      366107 NGot=   402653184 MDV=   402286672
 LenX=   402286672 LenY=   402285790
 Requested convergence on RMS density matrix=1.00D-11 within 600 cycles.
 Requested convergence on MAX density matrix=1.00D-09.
 Requested convergence on             energy=1.00D-09.
 Virtual orbitals will be shifted by   1.000 hartree.
 No special actions if energy rises.
 FoFCou: FMM=F IPFlag=           0 FMFlag=           0 FMFlg1=           0
         NFxFlg=           0 DoJE=F BraDBF=F KetDBF=F FulRan=T
         wScrn=  0.000000 ICntrl=     600 IOpCl=  0 I1Cent=           0 NGrid=           0
         NMat0=    1 NMatS0=     28 NMatT0=    0 NMatD0=    1 NMtDS0=    0 NMtDT0=    0
 Symmetry not used in FoFCou.

 Cycle   1  Pass 1  IDiag  1:
 E= -74.9099081828019    
 DIIS: error= 7.67D-02 at cycle   1 NSaved=   1.
 NSaved= 1 IEnMin= 1 EnMin= -74.9099081828019     IErMin= 1 ErrMin= 7.67D-02
 ErrMax= 7.67D-02  0.00D+00 EMaxC= 1.00D-01 BMatC= 3.94D-02 BMatP= 3.94D-02
 IDIUse=3 WtCom= 2.33D-01 WtEn= 7.67D-01
 Coeff-Com:  0.100D+01
 Coeff-En:   0.100D+01
 Coeff:      0.100D+01
 Gap=     0.886 Goal=   None    Shift=    1.000
 GapD=    0.886 DampG=2.000 DampE=0.500 DampFc=1.0000 IDamp=-1.
 RMSDP=2.25D-02 MaxDP=8.43D-02              OVMax= 0.00D+00

 Cycle   2  Pass 1  IDiag  1:
 E= -74.9541016811531     Delta-E=       -0.044193498351 Rises=F Damp=F
 DIIS: error= 3.15D-02 at cycle   2 NSaved=   2.
 NSaved= 2 IEnMin= 2 EnMin= -74.9541016811531     IErMin= 2 ErrMin= 3.15D-02
 ErrMax= 3.15D-02  0.00D+00 EMaxC= 1.00D-01 BMatC= 5.88D-03 BMatP= 3.94D-02
 IDIUse=3 WtCom= 6.85D-01 WtEn= 3.15D-01
 Coeff-Com: -0.562D+00 0.156D+01
 Coeff-En:   0.000D+00 0.100D+01
 Coeff:     -0.385D+00 0.138D+01
 Gap=     0.970 Goal=   None    Shift=    1.000
 RMSDP=9.21D-03 MaxDP=3.25D-02 DE=-4.42D-02 OVMax= 0.00D+00

 Cycle   3  Pass 1  IDiag  1:
 E= -74.9612191911915     Delta-E=       -0.007117510038 Rises=F Damp=F
 DIIS: error= 1.33D-02 at cycle   3 NSaved=   3.
 NSaved= 3 IEnMin= 3 EnMin= -74.9612191911915     IErMin= 3 ErrMin= 1.33D-02
 ErrMax= 1.33D-02  0.00D+00 EMaxC= 1.00D-01 BMatC= 1.10D-03 BMatP= 5.88D-03
 IDIUse=3 WtCom= 8.67D-01 WtEn= 1.33D-01
 Coeff-Com:  0.260D+00-0.166D+01 0.241D+01
 Coeff-En:   0.000D+00 0.000D+00 0.100D+01
 Coeff:      0.225D+00-0.144D+01 0.222D+01
 Gap=     0.984 Goal=   None    Shift=    1.000
 RMSDP=4.56D-03 MaxDP=1.35D-02 DE=-7.12D-03 OVMax= 0.00D+00

 Cycle   4  Pass 1  IDiag  1:
 E= -74.9626522069440     Delta-E=       -0.001433015752 Rises=F Damp=F
 DIIS: error= 5.55D-03 at cycle   4 NSaved=   4.
 NSaved= 4 IEnMin= 4 EnMin= -74.9626522069440     IErMin= 4 ErrMin= 5.55D-03
 ErrMax= 5.55D-03  0.00D+00 EMaxC= 1.00D-01 BMatC= 2.30D-04 BMatP= 1.10D-03
 IDIUse=3 WtCom= 9.45D-01 WtEn= 5.55D-02
 Coeff-Com: -0.725D-01 0.631D+00-0.225D+01 0.269D+01
 Coeff-En:   0.000D+00 0.000D+00 0.000D+00 0.100D+01
 Coeff:     -0.685D-01 0.596D+00-0.213D+01 0.260D+01
 Gap=     0.986 Goal=   None    Shift=    1.000
 RMSDP=2.41D-03 MaxDP=6.50D-03 DE=-1.43D-03 OVMax= 0.00D+00

 Cycle   5  Pass 1  IDiag  1:
 E= -74.9629741019598     Delta-E=       -0.000321895016 Rises=F Damp=F
 DIIS: error= 2.25D-03 at cycle   5 NSaved=   5.
 NSaved= 5 IEnMin= 5 EnMin= -74.9629741019598     IErMin= 5 ErrMin= 2.25D-03
 ErrMax= 2.25D-03  0.00D+00 EMaxC= 1.00D-01 BMatC= 4.97D-05 BMatP= 2.30D-04
 IDIUse=3 WtCom= 9.78D-01 WtEn= 2.25D-02
 Coeff-Com:  0.119D+00-0.988D+00 0.364D+01-0.681D+01 0.503D+01
 Coeff-En:   0.000D+00 0.000D+00 0.000D+00 0.000D+00 0.100D+01
 Coeff:      0.116D+00-0.966D+00 0.356D+01-0.666D+01 0.494D+01
 Gap=     0.987 Goal=   None    Shift=    1.000
 RMSDP=1.31D-03 MaxDP=3.98D-03 DE=-3.22D-04 OVMax= 0.00D+00

 Cycle   6  Pass 1  IDiag  1:
 E= -74.9630494815633     Delta-E=       -0.000075379604 Rises=F Damp=F
 DIIS: error= 9.97D-04 at cycle   6 NSaved=   6.
 NSaved= 6 IEnMin= 6 EnMin= -74.9630494815633     IErMin= 6 ErrMin= 9.97D-04
 ErrMax= 9.97D-04  0.00D+00 EMaxC= 1.00D-01 BMatC= 1.11D-05 BMatP= 4.97D-05
 IDIUse=3 WtCom= 9.90D-01 WtEn= 9.97D-03
 Coeff-Com:  0.139D-02-0.239D-01 0.777D-01 0.121D+00-0.150D+01 0.233D+01
 Coeff-En:   0.000D+00 0.000D+00 0.000D+00 0.000D+00 0.000D+00 0.100D+01
 Coeff:      0.138D-02-0.236D-01 0.769D-01 0.119D+00-0.149D+01 0.231D+01
 Gap=     0.987 Goal=   None    Shift=    1.000
 RMSDP=6.38D-04 MaxDP=2.00D-03 DE=-7.54D-05 OVMax= 0.00D+00

 Cycle   7  Pass 1  IDiag  1:
 E= -74.9630667405525     Delta-E=       -0.000017258989 Rises=F Damp=F
 DIIS: error= 4.61D-04 at cycle   7 NSaved=   7.
 NSaved= 7 IEnMin= 7 EnMin= -74.9630667405525     IErMin= 7 ErrMin= 4.61D-04
 ErrMax= 4.61D-04  0.00D+00 EMaxC= 1.00D-01 BMatC= 2.48D-06 BMatP= 1.11D-05
 IDIUse=3 WtCom= 9.95D-01 WtEn= 4.61D-03
 Coeff-Com:  0.553D-04-0.102D-02 0.130D-02 0.290D-01 0.266D+00-0.193D+01
 Coeff-Com:  0.264D+01
 Coeff-En:   0.000D+00 0.000D+00 0.000D+00 0.000D+00 0.000D+00 0.000D+00
 Coeff-En:   0.100D+01
 Coeff:      0.550D-04-0.102D-02 0.129D-02 0.289D-01 0.265D+00-0.192D+01
 Coeff:      0.263D+01
 Gap=     0.987 Goal=   None    Shift=    1.000
 RMSDP=3.08D-04 MaxDP=9.83D-04 DE=-1.73D-05 OVMax= 0.00D+00

 Cycle   8  Pass 1  IDiag  1:
 E= -74.9630706736174     Delta-E=       -0.000003933065 Rises=F Damp=F
 DIIS: error= 2.23D-04 at cycle   8 NSaved=   8.
 NSaved= 8 IEnMin= 8 EnMin= -74.9630706736174     IErMin= 8 ErrMin= 2.23D-04
 ErrMax= 2.23D-04  0.00D+00 EMaxC= 1.00D-01 BMatC= 5.61D-07 BMatP= 2.48D-06
 IDIUse=3 WtCom= 9.98D-01 WtEn= 2.23D-03
 Large coefficients: NSaved=  8 BigCof=   38.49 CofMax=   10.00 Det=-5.46D-18
 Inversion failed.  Reducing to  7 matrices.
 Large coefficients: NSaved=  7 BigCof=   17.07 CofMax=   10.00 Det=-8.59D-17
 Inversion failed.  Reducing to  6 matrices.
 Large coefficients: NSaved=  6 BigCof=   11.03 CofMax=   10.00 Det=-7.23D-16
 Inversion failed.  Reducing to  5 matrices.
 Coeff-Com:  0.674D-02 0.224D+00-0.962D+00 0.284D+00 0.145D+01
 Coeff-En:   0.000D+00 0.000D+00 0.000D+00 0.000D+00 0.100D+01
 Coeff:      0.673D-02 0.223D+00-0.960D+00 0.284D+00 0.145D+01
 Gap=     0.987 Goal=   None    Shift=    1.000
 RMSDP=1.49D-04 MaxDP=4.82D-04 DE=-3.93D-06 OVMax= 0.00D+00

 Cycle   9  Pass 1  IDiag  1:
 E= -74.9630715788663     Delta-E=       -0.000000905249 Rises=F Damp=F
 DIIS: error= 1.08D-04 at cycle   9 NSaved=   6.
 NSaved= 6 IEnMin= 6 EnMin= -74.9630715788663     IErMin= 6 ErrMin= 1.08D-04
 ErrMax= 1.08D-04  0.00D+00 EMaxC= 1.00D-01 BMatC= 1.28D-07 BMatP= 5.61D-07
 IDIUse=3 WtCom= 9.99D-01 WtEn= 1.08D-03
 Coeff-Com:  0.304D-02 0.282D-01-0.516D+00 0.257D+01-0.557D+01 0.449D+01
 Coeff-En:   0.000D+00 0.000D+00 0.000D+00 0.000D+00 0.000D+00 0.100D+01
 Coeff:      0.304D-02 0.281D-01-0.516D+00 0.257D+01-0.557D+01 0.449D+01
 Gap=     0.987 Goal=   None    Shift=    1.000
 RMSDP=7.26D-05 MaxDP=2.37D-04 DE=-9.05D-07 OVMax= 0.00D+00

 Cycle  10  Pass 1  IDiag  1:
 E= -74.9630717888754     Delta-E=       -0.000000210009 Rises=F Damp=F
 DIIS: error= 5.26D-05 at cycle  10 NSaved=   7.
 NSaved= 7 IEnMin= 7 EnMin= -74.9630717888754     IErMin= 7 ErrMin= 5.26D-05
 ErrMax= 5.26D-05  0.00D+00 EMaxC= 1.00D-01 BMatC= 2.93D-08 BMatP= 1.28D-07
 IDIUse=1 WtCom= 1.00D+00 WtEn= 0.00D+00
 Coeff-Com:  0.362D-03 0.149D-01-0.614D-01-0.515D+00 0.363D+01-0.783D+01
 Coeff-Com:  0.576D+01
 Coeff:      0.362D-03 0.149D-01-0.614D-01-0.515D+00 0.363D+01-0.783D+01
 Coeff:      0.576D+01
 Gap=     0.987 Goal=   None    Shift=    1.000
 RMSDP=3.53D-05 MaxDP=1.16D-04 DE=-2.10D-07 OVMax= 0.00D+00

 Cycle  11  Pass 1  IDiag  1:
 E= -74.9630718377156     Delta-E=       -0.000000048840 Rises=F Damp=F
 DIIS: error= 2.55D-05 at cycle  11 NSaved=   8.
 NSaved= 8 IEnMin= 8 EnMin= -74.9630718377156     IErMin= 8 ErrMin= 2.55D-05
 ErrMax= 2.55D-05  0.00D+00 EMaxC= 1.00D-01 BMatC= 6.73D-09 BMatP= 2.93D-08
 IDIUse=1 WtCom= 1.00D+00 WtEn= 0.00D+00
 Large coefficients: NSaved=  8 BigCof=    0.00 CofMax=   10.00 Det=-1.53D-21
 Inversion failed.  Reducing to  7 matrices.
 Large coefficients: NSaved=  7 BigCof=    0.00 CofMax=   10.00 Det=-2.05D-20
 Inversion failed.  Reducing to  6 matrices.
 Coeff-Com:  0.426D-01-0.459D+00 0.164D+01-0.168D+01-0.187D+01 0.332D+01
 Coeff:      0.426D-01-0.459D+00 0.164D+01-0.168D+01-0.187D+01 0.332D+01
 Gap=     0.987 Goal=   None    Shift=    1.000
 RMSDP=1.72D-05 MaxDP=5.67D-05 DE=-4.88D-08 OVMax= 0.00D+00

 Cycle  12  Pass 1  IDiag  1:
 E= -74.9630718491198     Delta-E=       -0.000000011404 Rises=F Damp=F
 DIIS: error= 1.24D-05 at cycle  12 NSaved=   7.
 NSaved= 7 IEnMin= 7 EnMin= -74.9630718491198     IErMin= 7 ErrMin= 1.24D-05
 ErrMax= 1.24D-05  0.00D+00 EMaxC= 1.00D-01 BMatC= 1.56D-09 BMatP= 6.73D-09
 IDIUse=1 WtCom= 1.00D+00 WtEn= 0.00D+00
 Large coefficients: NSaved=  7 BigCof=    0.00 CofMax=   10.00 Det=-9.00D-22
 Inversion failed.  Reducing to  6 matrices.
 Coeff-Com:  0.477D-01-0.401D+00 0.790D+00 0.145D+01-0.634D+01 0.546D+01
 Coeff:      0.477D-01-0.401D+00 0.790D+00 0.145D+01-0.634D+01 0.546D+01
 Gap=     0.987 Goal=   None    Shift=    1.000
 RMSDP=8.36D-06 MaxDP=2.77D-05 DE=-1.14D-08 OVMax= 0.00D+00

 Cycle  13  Pass 1  IDiag  1:
 E= -74.9630718517920     Delta-E=       -0.000000002672 Rises=F Damp=F
 DIIS: error= 6.02D-06 at cycle  13 NSaved=   7.
 NSaved= 7 IEnMin= 7 EnMin= -74.9630718517920     IErMin= 7 ErrMin= 6.02D-06
 ErrMax= 6.02D-06  0.00D+00 EMaxC= 1.00D-01 BMatC= 3.61D-10 BMatP= 1.56D-09
 IDIUse=1 WtCom= 1.00D+00 WtEn= 0.00D+00
 Large coefficients: NSaved=  7 BigCof=    0.00 CofMax=   10.00 Det=-1.76D-22
 Inversion failed.  Reducing to  6 matrices.
 Coeff-Com:  0.140D-01-0.642D-01-0.435D+00 0.346D+01-0.780D+01 0.582D+01
 Coeff:      0.140D-01-0.642D-01-0.435D+00 0.346D+01-0.780D+01 0.582D+01
 Gap=     0.987 Goal=   None    Shift=    1.000
 RMSDP=4.07D-06 MaxDP=1.35D-05 DE=-2.67D-09 OVMax= 0.00D+00

 Cycle  14  Pass 1  IDiag  1:
 E= -74.9630718524201     Delta-E=       -0.000000000628 Rises=F Damp=F
 DIIS: error= 2.93D-06 at cycle  14 NSaved=   7.
 NSaved= 7 IEnMin= 7 EnMin= -74.9630718524201     IErMin= 7 ErrMin= 2.93D-06
 ErrMax= 2.93D-06  0.00D+00 EMaxC= 1.00D-01 BMatC= 8.42D-11 BMatP= 3.61D-10
 IDIUse=1 WtCom= 1.00D+00 WtEn= 0.00D+00
 Large coefficients: NSaved=  7 BigCof=    0.00 CofMax=   10.00 Det=-1.06D-22
 Inversion failed.  Reducing to  6 matrices.
 Coeff-Com: -0.781D-02-0.322D-02-0.347D-01 0.145D+01-0.481D+01 0.440D+01
 Coeff:     -0.781D-02-0.322D-02-0.347D-01 0.145D+01-0.481D+01 0.440D+01
 Gap=     0.987 Goal=   None    Shift=    1.000
 RMSDP=1.99D-06 MaxDP=6.62D-06 DE=-6.28D-10 OVMax= 0.00D+00

 Cycle  15  Pass 1  IDiag  1:
 E= -74.9630718525681     Delta-E=       -0.000000000148 Rises=F Damp=F
 DIIS: error= 1.43D-06 at cycle  15 NSaved=   7.
 NSaved= 7 IEnMin= 7 EnMin= -74.9630718525681     IErMin= 7 ErrMin= 1.43D-06
 ErrMax= 1.43D-06  0.00D+00 EMaxC= 1.00D-01 BMatC= 1.97D-11 BMatP= 8.42D-11
 IDIUse=1 WtCom= 1.00D+00 WtEn= 0.00D+00
 Large coefficients: NSaved=  7 BigCof=    0.00 CofMax=   10.00 Det=-1.35D-23
 Inversion failed.  Reducing to  6 matrices.
 Large coefficients: NSaved=  6 BigCof=    0.00 CofMax=   10.00 Det=-1.37D-23
 Inversion failed.  Reducing to  5 matrices.
 Coeff-Com: -0.280D-01-0.151D+00 0.208D+01-0.575D+01 0.485D+01
 Coeff:     -0.280D-01-0.151D+00 0.208D+01-0.575D+01 0.485D+01
 Gap=     0.987 Goal=   None    Shift=    1.000
 RMSDP=9.69D-07 MaxDP=3.24D-06 DE=-1.48D-10 OVMax= 0.00D+00

 Cycle  16  Pass 1  IDiag  1:
 E= -74.9630718526031     Delta-E=       -0.000000000035 Rises=F Damp=F
 DIIS: error= 6.94D-07 at cycle  16 NSaved=   6.
 NSaved= 6 IEnMin= 6 EnMin= -74.9630718526031     IErMin= 6 ErrMin= 6.94D-07
 ErrMax= 6.94D-07  0.00D+00 EMaxC= 1.00D-01 BMatC= 4.61D-12 BMatP= 1.97D-11
 IDIUse=1 WtCom= 1.00D+00 WtEn= 0.00D+00
 Large coefficients: NSaved=  6 BigCof=    0.00 CofMax=   10.00 Det=-7.85D-23
 Inversion failed.  Reducing to  5 matrices.
 Coeff-Com: -0.160D+00 0.937D+00-0.117D+01-0.164D+01 0.304D+01
 Coeff:     -0.160D+00 0.937D+00-0.117D+01-0.164D+01 0.304D+01
 Gap=     0.987 Goal=   None    Shift=    1.000
 RMSDP=4.73D-07 MaxDP=1.58D-06 DE=-3.50D-11 OVMax= 0.00D+00

 Cycle  17  Pass 1  IDiag  1:
 E= -74.9630718526113     Delta-E=       -0.000000000008 Rises=F Damp=F
 DIIS: error= 3.38D-07 at cycle  17 NSaved=   6.
 NSaved= 6 IEnMin= 6 EnMin= -74.9630718526113     IErMin= 6 ErrMin= 3.38D-07
 ErrMax= 3.38D-07  0.00D+00 EMaxC= 1.00D-01 BMatC= 1.08D-12 BMatP= 4.61D-12
 IDIUse=1 WtCom= 1.00D+00 WtEn= 0.00D+00
 Large coefficients: NSaved=  6 BigCof=    0.00 CofMax=   10.00 Det=-6.76D-23
 Inversion failed.  Reducing to  5 matrices.
 Large coefficients: NSaved=  5 BigCof=    0.00 CofMax=   10.00 Det=-7.86D-23
 Inversion failed.  Reducing to  4 matrices.
 Coeff-Com: -0.378D+00 0.275D+01-0.659D+01 0.522D+01
 Coeff:     -0.378D+00 0.275D+01-0.659D+01 0.522D+01
 Gap=     0.987 Goal=   None    Shift=    1.000
 RMSDP=2.31D-07 MaxDP=7.73D-07 DE=-8.26D-12 OVMax= 0.00D+00

 Cycle  18  Pass 1  IDiag  1:
 E= -74.9630718526133     Delta-E=       -0.000000000002 Rises=F Damp=F
 DIIS: error= 1.65D-07 at cycle  18 NSaved=   5.
 NSaved= 5 IEnMin= 5 EnMin= -74.9630718526133     IErMin= 5 ErrMin= 1.65D-07
 ErrMax= 1.65D-07  0.00D+00 EMaxC= 1.00D-01 BMatC= 2.55D-13 BMatP= 1.08D-12
 IDIUse=1 WtCom= 1.00D+00 WtEn= 0.00D+00
 Large coefficients: NSaved=  5 BigCof=    0.00 CofMax=   10.00 Det=-9.57D-24
 Inversion failed.  Reducing to  4 matrices.
 Coeff-Com: -0.377D+00 0.274D+01-0.658D+01 0.521D+01
 Coeff:     -0.377D+00 0.274D+01-0.658D+01 0.521D+01
 Gap=     0.987 Goal=   None    Shift=    1.000
 RMSDP=1.13D-07 MaxDP=3.78D-07 DE=-1.99D-12 OVMax= 0.00D+00

 Cycle  19  Pass 1  IDiag  1:
 E= -74.9630718526137     Delta-E=        0.000000000000 Rises=F Damp=F
 DIIS: error= 8.03D-08 at cycle  19 NSaved=   5.
 NSaved= 5 IEnMin= 5 EnMin= -74.9630718526137     IErMin= 5 ErrMin= 8.03D-08
 ErrMax= 8.03D-08  0.00D+00 EMaxC= 1.00D-01 BMatC= 6.02D-14 BMatP= 2.55D-13
 IDIUse=1 WtCom= 1.00D+00 WtEn= 0.00D+00
 Large coefficients: NSaved=  5 BigCof=    0.00 CofMax=   10.00 Det=-1.27D-24
 Inversion failed.  Reducing to  4 matrices.
 Coeff-Com: -0.376D+00 0.274D+01-0.657D+01 0.521D+01
 Coeff:     -0.376D+00 0.274D+01-0.657D+01 0.521D+01
 Gap=     0.987 Goal=   None    Shift=    1.000
 RMSDP=5.51D-08 MaxDP=1.85D-07 DE=-4.41D-13 OVMax= 0.00D+00

 Cycle  20  Pass 1  IDiag  1:
 E= -74.9630718526138     Delta-E=        0.000000000000 Rises=F Damp=F
 DIIS: error= 3.91D-08 at cycle  20 NSaved=   5.
 NSaved= 5 IEnMin= 5 EnMin= -74.9630718526138     IErMin= 5 ErrMin= 3.91D-08
 ErrMax= 3.91D-08  0.00D+00 EMaxC= 1.00D-01 BMatC= 1.42D-14 BMatP= 6.02D-14
 IDIUse=1 WtCom= 1.00D+00 WtEn= 0.00D+00
 Large coefficients: NSaved=  5 BigCof=    0.00 CofMax=   10.00 Det=-6.01D-24
 Inversion failed.  Reducing to  4 matrices.
 Coeff-Com: -0.386D+00 0.279D+01-0.666D+01 0.526D+01
 Coeff:     -0.386D+00 0.279D+01-0.666D+01 0.526D+01
 Gap=     0.987 Goal=   None    Shift=    1.000
 RMSDP=2.69D-08 MaxDP=9.02D-08 DE=-9.95D-14 OVMax= 0.00D+00

 Cycle  21  Pass 1  IDiag  1:
 E= -74.9630718526138     Delta-E=        0.000000000000 Rises=F Damp=F
 DIIS: error= 1.91D-08 at cycle  21 NSaved=   5.
 NSaved= 5 IEnMin= 4 EnMin= -74.9630718526138     IErMin= 5 ErrMin= 1.91D-08
 ErrMax= 1.91D-08  0.00D+00 EMaxC= 1.00D-01 BMatC= 3.37D-15 BMatP= 1.42D-14
 IDIUse=1 WtCom= 1.00D+00 WtEn= 0.00D+00
 Large coefficients: NSaved=  5 BigCof=    0.00 CofMax=   10.00 Det=-3.69D-24
 Inversion failed.  Reducing to  4 matrices.
 Large coefficients: NSaved=  4 BigCof=    0.00 CofMax=   10.00 Det=-2.37D-23
 Inversion failed.  Reducing to  3 matrices.
 Coeff-Com:  0.705D+00-0.310D+01 0.340D+01
 Coeff:      0.705D+00-0.310D+01 0.340D+01
 Gap=     0.987 Goal=   None    Shift=    1.000
 RMSDP=1.32D-08 MaxDP=4.41D-08 DE= 1.42D-14 OVMax= 0.00D+00

 Cycle  22  Pass 1  IDiag  1:
 E= -74.9630718526139     Delta-E=        0.000000000000 Rises=F Damp=F
 DIIS: error= 9.31D-09 at cycle  22 NSaved=   4.
 NSaved= 4 IEnMin= 4 EnMin= -74.9630718526139     IErMin= 4 ErrMin= 9.31D-09
 ErrMax= 9.31D-09  0.00D+00 EMaxC= 1.00D-01 BMatC= 7.97D-16 BMatP= 3.37D-15
 IDIUse=1 WtCom= 1.00D+00 WtEn= 0.00D+00
 Large coefficients: NSaved=  4 BigCof=    0.00 CofMax=   10.00 Det=-6.90D-26
 Inversion failed.  Reducing to  3 matrices.
 Coeff-Com:  0.704D+00-0.310D+01 0.340D+01
 Coeff:      0.704D+00-0.310D+01 0.340D+01
 Gap=     0.987 Goal=   None    Shift=    1.000
 RMSDP=6.43D-09 MaxDP=2.15D-08 DE=-7.11D-14 OVMax= 0.00D+00

 Cycle  23  Pass 1  IDiag  1:
 E= -74.9630718526139     Delta-E=        0.000000000000 Rises=F Damp=F
 DIIS: error= 4.54D-09 at cycle  23 NSaved=   4.
 NSaved= 4 IEnMin= 4 EnMin= -74.9630718526139     IErMin= 4 ErrMin= 4.54D-09
 ErrMax= 4.54D-09  0.00D+00 EMaxC= 1.00D-01 BMatC= 1.89D-16 BMatP= 7.97D-16
 IDIUse=1 WtCom= 1.00D+00 WtEn= 0.00D+00
 Large coefficients: NSaved=  4 BigCof=    0.00 CofMax=   10.00 Det=-1.37D-24
 Inversion failed.  Reducing to  3 matrices.
 Coeff-Com:  0.130D+00-0.190D+01 0.277D+01
 Coeff:      0.130D+00-0.190D+01 0.277D+01
 Gap=     0.987 Goal=   None    Shift=    1.000
 RMSDP=3.14D-09 MaxDP=1.05D-08 DE=-2.84D-14 OVMax= 0.00D+00

 Cycle  24  Pass 1  IDiag  1:
 E= -74.9630718526140     Delta-E=        0.000000000000 Rises=F Damp=F
 DIIS: error= 2.22D-09 at cycle  24 NSaved=   4.
 NSaved= 4 IEnMin= 4 EnMin= -74.9630718526140     IErMin= 4 ErrMin= 2.22D-09
 ErrMax= 2.22D-09  0.00D+00 EMaxC= 1.00D-01 BMatC= 4.49D-17 BMatP= 1.89D-16
 IDIUse=1 WtCom= 1.00D+00 WtEn= 0.00D+00
 Large coefficients: NSaved=  4 BigCof=    0.00 CofMax=   10.00 Det=-8.49D-25
 Inversion failed.  Reducing to  3 matrices.
 Coeff-Com:  0.704D+00-0.310D+01 0.340D+01
 Coeff:      0.704D+00-0.310D+01 0.340D+01
 Gap=     0.987 Goal=   None    Shift=    1.000
 RMSDP=1.53D-09 MaxDP=5.14D-09 DE=-5.68D-14 OVMax= 0.00D+00

 Cycle  25  Pass 1  IDiag  1:
 E= -74.9630718526139     Delta-E=        0.000000000000 Rises=F Damp=F
 DIIS: error= 1.08D-09 at cycle  25 NSaved=   4.
 NSaved= 4 IEnMin= 3 EnMin= -74.9630718526140     IErMin= 4 ErrMin= 1.08D-09
 ErrMax= 1.08D-09  0.00D+00 EMaxC= 1.00D-01 BMatC= 1.07D-17 BMatP= 4.49D-17
 IDIUse=1 WtCom= 1.00D+00 WtEn= 0.00D+00
 Large coefficients: NSaved=  4 BigCof=    0.00 CofMax=   10.00 Det=-8.25D-26
 Inversion failed.  Reducing to  3 matrices.
 Coeff-Com:  0.705D+00-0.310D+01 0.340D+01
 Coeff:      0.705D+00-0.310D+01 0.340D+01
 Gap=     0.987 Goal=   None    Shift=    1.000
 RMSDP=7.50D-10 MaxDP=2.51D-09 DE= 5.68D-14 OVMax= 0.00D+00

 Cycle  26  Pass 1  IDiag  1:
 E= -74.9630718526140     Delta-E=        0.000000000000 Rises=F Damp=F
 DIIS: error= 5.29D-10 at cycle  26 NSaved=   4.
 NSaved= 4 IEnMin= 4 EnMin= -74.9630718526140     IErMin= 4 ErrMin= 5.29D-10
 ErrMax= 5.29D-10  0.00D+00 EMaxC= 1.00D-01 BMatC= 2.54D-18 BMatP= 1.07D-17
 IDIUse=1 WtCom= 1.00D+00 WtEn= 0.00D+00
 Large coefficients: NSaved=  4 BigCof=    0.00 CofMax=   10.00 Det=-9.24D-27
 Inversion failed.  Reducing to  3 matrices.
 Large coefficients: NSaved=  3 BigCof=    0.00 CofMax=   10.00 Det=-2.95D-23
 Inversion failed.  Reducing to  2 matrices.
 Coeff-Com: -0.951D+00 0.195D+01
 Coeff:     -0.951D+00 0.195D+01
 Gap=     0.987 Goal=   None    Shift=    1.000
 RMSDP=3.65D-10 MaxDP=1.22D-09 DE=-1.14D-13 OVMax= 0.00D+00

 Cycle  27  Pass 1  IDiag  1:
 E= -74.9630718526140     Delta-E=        0.000000000000 Rises=F Damp=F
 DIIS: error= 2.59D-10 at cycle  27 NSaved=   3.
 NSaved= 3 IEnMin= 2 EnMin= -74.9630718526140     IErMin= 3 ErrMin= 2.59D-10
 ErrMax= 2.59D-10  0.00D+00 EMaxC= 1.00D-01 BMatC= 6.05D-19 BMatP= 2.54D-18
 IDIUse=1 WtCom= 1.00D+00 WtEn= 0.00D+00
 Large coefficients: NSaved=  3 BigCof=    0.00 CofMax=   10.00 Det=-1.50D-24
 Inversion failed.  Reducing to  2 matrices.
 Coeff-Com: -0.955D+00 0.195D+01
 Coeff:     -0.955D+00 0.195D+01
 Gap=     0.987 Goal=   None    Shift=    1.000
 RMSDP=1.79D-10 MaxDP=5.99D-10 DE= 8.53D-14 OVMax= 0.00D+00

 Cycle  28  Pass 1  IDiag  1:
 E= -74.9630718526140     Delta-E=        0.000000000000 Rises=F Damp=F
 DIIS: error= 1.27D-10 at cycle  28 NSaved=   3.
 NSaved= 3 IEnMin= 1 EnMin= -74.9630718526140     IErMin= 3 ErrMin= 1.27D-10
 ErrMax= 1.27D-10  0.00D+00 EMaxC= 1.00D-01 BMatC= 1.45D-19 BMatP= 6.05D-19
 IDIUse=1 WtCom= 1.00D+00 WtEn= 0.00D+00
 Large coefficients: NSaved=  3 BigCof=    0.00 CofMax=   10.00 Det=-1.91D-24
 Inversion failed.  Reducing to  2 matrices.
 Coeff-Com: -0.957D+00 0.196D+01
 Coeff:     -0.957D+00 0.196D+01
 Gap=     0.987 Goal=   None    Shift=    1.000
 RMSDP=8.77D-11 MaxDP=2.94D-10 DE= 0.00D+00 OVMax= 0.00D+00

 Cycle  29  Pass 1  IDiag  1:
 E= -74.9630718526140     Delta-E=        0.000000000000 Rises=F Damp=F
 DIIS: error= 6.21D-11 at cycle  29 NSaved=   3.
 NSaved= 3 IEnMin= 3 EnMin= -74.9630718526140     IErMin= 3 ErrMin= 6.21D-11
 ErrMax= 6.21D-11  0.00D+00 EMaxC= 1.00D-01 BMatC= 3.46D-20 BMatP= 1.45D-19
 IDIUse=1 WtCom= 1.00D+00 WtEn= 0.00D+00
 Large coefficients: NSaved=  3 BigCof=    0.00 CofMax=   10.00 Det=-6.65D-25
 Inversion failed.  Reducing to  2 matrices.
 Coeff-Com: -0.957D+00 0.196D+01
 Coeff:     -0.957D+00 0.196D+01
 Gap=     0.987 Goal=   None    Shift=    1.000
 RMSDP=4.30D-11 MaxDP=1.44D-10 DE=-5.68D-14 OVMax= 0.00D+00

 Cycle  30  Pass 1  IDiag  1:
 E= -74.9630718526141     Delta-E=        0.000000000000 Rises=F Damp=F
 DIIS: error= 3.04D-11 at cycle  30 NSaved=   3.
 NSaved= 3 IEnMin= 3 EnMin= -74.9630718526141     IErMin= 3 ErrMin= 3.04D-11
 ErrMax= 3.04D-11  0.00D+00 EMaxC= 1.00D-01 BMatC= 8.28D-21 BMatP= 3.46D-20
 IDIUse=1 WtCom= 1.00D+00 WtEn= 0.00D+00
 Large coefficients: NSaved=  3 BigCof=    0.00 CofMax=   10.00 Det=-1.54D-25
 Inversion failed.  Reducing to  2 matrices.
 Coeff-Com: -0.958D+00 0.196D+01
 Coeff:     -0.958D+00 0.196D+01
 Gap=     0.987 Goal=   None    Shift=    1.000
 RMSDP=2.11D-11 MaxDP=7.08D-11 DE=-5.68D-14 OVMax= 0.00D+00

 Cycle  31  Pass 1  IDiag  1:
 E= -74.9630718526141     Delta-E=        0.000000000000 Rises=F Damp=F
 DIIS: error= 1.49D-11 at cycle  31 NSaved=   3.
 NSaved= 3 IEnMin= 2 EnMin= -74.9630718526141     IErMin= 3 ErrMin= 1.49D-11
 ErrMax= 1.49D-11  0.00D+00 EMaxC= 1.00D-01 BMatC= 1.98D-21 BMatP= 8.28D-21
 IDIUse=1 WtCom= 1.00D+00 WtEn= 0.00D+00
 Large coefficients: NSaved=  3 BigCof=    0.00 CofMax=   10.00 Det=-2.60D-26
 Inversion failed.  Reducing to  2 matrices.
 Coeff-Com: -0.957D+00 0.196D+01
 Coeff:     -0.957D+00 0.196D+01
 Gap=     0.987 Goal=   None    Shift=    1.000
 RMSDP=1.03D-11 MaxDP=3.47D-11 DE= 0.00D+00 OVMax= 0.00D+00

 Cycle  32  Pass 1  IDiag  1:
 E= -74.9630718526141     Delta-E=        0.000000000000 Rises=F Damp=F
 DIIS: error= 7.27D-12 at cycle  32 NSaved=   3.
 NSaved= 3 IEnMin= 1 EnMin= -74.9630718526141     IErMin= 3 ErrMin= 7.27D-12
 ErrMax= 7.27D-12  0.00D+00 EMaxC= 1.00D-01 BMatC= 4.74D-22 BMatP= 1.98D-21
 IDIUse=1 WtCom= 1.00D+00 WtEn= 0.00D+00
 Large coefficients: NSaved=  3 BigCof=    0.00 CofMax=   10.00 Det=-3.72D-27
 Inversion failed.  Reducing to  2 matrices.
 Coeff-Com: -0.957D+00 0.196D+01
 Coeff:     -0.957D+00 0.196D+01
 Gap=     0.987 Goal=   None    Shift=    1.000
 RMSDP=5.06D-12 MaxDP=1.70D-11 DE= 0.00D+00 OVMax= 0.00D+00

 SCF Done:  E(RHF) =    -74.96307185261406000000 A.U. after   32 cycles
            NFock= 32  Conv=0.51D-11     -V/T= 2.0052
 KE= 7.457650188494D+01 PE=-1.968631240049D+02 EE= 3.818307131848D+01
 Leave Link  502 at Sun Oct 22 22:13:51 2017, MaxMem=   402653184 cpu:         0.8
 (Enter /home/acad/unamur-ucpts/pbeaujea/gaussian/g09/l601.exe)
 Copying SCF densities to generalized density rwf, IOpCl= 0 IROHF=0.

 **********************************************************************

            Population analysis using the SCF density.

 **********************************************************************

 Alpha  occ. eigenvalues --  -20.24031  -1.26393  -0.61738  -0.44885  -0.38976
 Alpha virt. eigenvalues --    0.59764   0.74029
          Condensed to atoms (all electrons):
               1          2          3
     1  O    7.836175   0.263776   0.263776
     2  H    0.263776   0.600589  -0.046229
     3  H    0.263776  -0.046229   0.600589
 Mulliken charges:
               1
     1  O   -0.363727
     2  H    0.181863
     3  H    0.181863
 Sum of Mulliken charges =   0.00000
 Mulliken charges with hydrogens summed into heavy atoms:
               1
     1  O    0.000000
 Electronic spatial extent (au):  <R**2>=             17.9007
 Charge=              0.0000 electrons
 Dipole moment (field-independent basis, Debye):
    X=              0.0156    Y=              0.0000    Z=             -1.7094  Tot=              1.7095
 Quadrupole moment (field-independent basis, Debye-Ang):
   XX=             -6.0979   YY=             -4.3092   ZZ=             -5.4141
   XY=              0.0000   XZ=              0.0010   YZ=              0.0000
 Traceless Quadrupole moment (field-independent basis, Debye-Ang):
   XX=             -0.8242   YY=              0.9645   ZZ=             -0.1404
   XY=              0.0000   XZ=              0.0010   YZ=              0.0000
 Octapole moment (field-independent basis, Debye-Ang**2):
  XXX=              0.0775  YYY=              0.0000  ZZZ=             -0.1867  XYY=              0.0234
  XXY=              0.0000  XXZ=             -0.0015  XZZ=              0.0246  YZZ=              0.0000
  YYZ=             -0.5653  XYZ=              0.0000
 Hexadecapole moment (field-independent basis, Debye-Ang**3):
 XXXX=             -3.2358 YYYY=             -6.5606 ZZZZ=             -4.8498 XXXY=              0.0000
 XXXZ=              0.0083 YYYX=              0.0000 YYYZ=              0.0000 ZZZX=              0.0072
 ZZZY=              0.0000 XXYY=             -1.7955 XXZZ=             -1.3810 YYZZ=             -1.6973
 XXYZ=              0.0000 YYXZ=              0.0015 ZZXY=              0.0000
 N-N= 9.140478948830D+00 E-N=-1.968631240048D+02  KE= 7.457650188494D+01
 No NMR shielding tensors so no spin-rotation constants.
 Leave Link  601 at Sun Oct 22 22:13:52 2017, MaxMem=   402653184 cpu:         0.4
 (Enter /home/acad/unamur-ucpts/pbeaujea/gaussian/g09/l701.exe)
 Compute integral first derivatives.
 ... and contract with generalized density number  0.
 Leave Link  701 at Sun Oct 22 22:13:53 2017, MaxMem=   402653184 cpu:         0.4
 (Enter /home/acad/unamur-ucpts/pbeaujea/gaussian/g09/l702.exe)
 L702 exits ... SP integral derivatives will be done elsewhere.
 Leave Link  702 at Sun Oct 22 22:13:53 2017, MaxMem=   402653184 cpu:         0.1
 (Enter /home/acad/unamur-ucpts/pbeaujea/gaussian/g09/l703.exe)
 Compute integral first derivatives, UseDBF=F ICtDFT=           0.
 Integral derivatives from FoFJK, PRISM(SPDF).
 Calling FoFJK, ICntrl=      2127 FMM=F ISym2X=0 I1Cent= 0 IOpClX= 0 NMat=1 NMatS=1 NMatT=0.
 FoFJK:  IHMeth= 1 ICntrl=    2127 DoSepK=F KAlg= 0 I1Cent=   0 FoldK=F
 IRaf=         0 NMat=   1 IRICut=       1 DoRegI=T DoRafI=F ISym2E= 0.
 FoFCou: FMM=F IPFlag=           0 FMFlag=      100000 FMFlg1=         800
         NFxFlg=           0 DoJE=F BraDBF=F KetDBF=F FulRan=T
         wScrn=  0.000000 ICntrl=    2127 IOpCl=  0 I1Cent=           0 NGrid=           0
         NMat0=    1 NMatS0=      1 NMatT0=    0 NMatD0=    1 NMtDS0=    0 NMtDT0=    0
 Symmetry not used in FoFCou.
 Leave Link  703 at Sun Oct 22 22:13:53 2017, MaxMem=   402653184 cpu:         0.4
 (Enter /home/acad/unamur-ucpts/pbeaujea/gaussian/g09/l716.exe)
 Dipole        = 6.14090755D-03-8.88178420D-16-6.72522533D-01
 -------------------------------------------------------------------
 Center     Atomic                   Forces (Hartrees/Bohr)
 Number     Number              X              Y              Z
 -------------------------------------------------------------------
      1        8          -0.000533923    0.000000000    0.058472648
      2        1           0.000266961    0.015414161   -0.029236324
      3        1           0.000266961   -0.015414161   -0.029236324
 -------------------------------------------------------------------
 Cartesian Forces:  Max     0.058472648 RMS     0.024953727
 Z-matrix is all fixed cartesians, so copy forces.
 Force constants in Cartesian coordinates: 
                1             2             3             4             5 
      1  0.100000D+01
      2  0.000000D+00  0.700298D+00
      3 -0.476201D-02  0.000000D+00  0.521512D+00
      4 -0.217413D-04 -0.241099D-02  0.238100D-02  0.100000D+01
      5 -0.198646D-02 -0.350149D+00  0.217547D+00  0.219872D-02  0.367680D+00
      6  0.238100D-02  0.264040D+00 -0.260756D+00 -0.209954D-02 -0.240794D+00
      7 -0.217413D-04  0.241099D-02  0.238100D-02  0.257010D-05 -0.212265D-03
      8  0.198646D-02 -0.350149D+00 -0.217547D+00  0.212265D-03 -0.175309D-01
      9  0.238100D-02 -0.264040D+00 -0.260756D+00 -0.281465D-03  0.232462D-01
                6             7             8             9 
      6  0.229931D+00
      7 -0.281465D-03  0.100000D+01
      8 -0.232462D-01 -0.219872D-02  0.367680D+00
      9  0.308247D-01 -0.209954D-02  0.240794D+00  0.229931D+00
 Leave Link  716 at Sun Oct 22 22:13:53 2017, MaxMem=   402653184 cpu:         0.1
 (Enter /home/acad/unamur-ucpts/pbeaujea/gaussian/g09/l103.exe)

 GradGradGradGradGradGradGradGradGradGradGradGradGradGradGradGradGradGrad
 Berny optimization.
 Search for a local minimum.
 Step number   1 out of a maximum of    2
 All quantities printed in internal units (Hartrees-Bohrs-Radians)
 Second derivative matrix not updated -- first step.
 The second derivative matrix:
                          X1        Y1        Z1        X2        Y2
           X1           1.00000
           Y1           0.00000   0.70030
           Z1          -0.00476   0.00000   0.52151
           X2          -0.00002  -0.00241   0.00238   1.00000
           Y2          -0.00199  -0.35015   0.21755   0.00220   0.36768
           Z2           0.00238   0.26404  -0.26076  -0.00210  -0.24079
           X3          -0.00002   0.00241   0.00238   0.00000  -0.00021
           Y3           0.00199  -0.35015  -0.21755   0.00021  -0.01753
           Z3           0.00238  -0.26404  -0.26076  -0.00028   0.02325
                          Z2        X3        Y3        Z3
           Z2           0.22993
           X3          -0.00028   1.00000
           Y3          -0.02325  -0.00220   0.36768
           Z3           0.03082  -0.00210   0.24079   0.22993
 ITU=  0
     Eigenvalues ---    0.14626   0.84700   0.99717
 Angle between quadratic step and forces=  49.56 degrees.
 Linear search not attempted -- first point.
 TrRot= -0.000343  0.000000  0.037574  0.000000  0.000000  0.000000
 Variable       Old X    -DE/DX   Delta X   Delta X   Delta X     New X
                                 (Linear)    (Quad)   (Total)
    X1       -0.01000  -0.00053   0.00000  -0.00056  -0.00091  -0.01091
    Y1        0.00000   0.00000   0.00000   0.00000   0.00000   0.00000
    Z1        0.21903   0.05847   0.00000   0.06165   0.09922   0.31826
    X2        0.00000   0.00027   0.00000   0.00080   0.00045   0.00045
    Y2        1.45230   0.01541   0.00000  -0.04405  -0.04405   1.40826
    Z2       -0.87612  -0.02924   0.00000  -0.08719  -0.04961  -0.92573
    X3        0.00000   0.00027   0.00000   0.00080   0.00045   0.00045
    Y3       -1.45230  -0.01541   0.00000   0.04405   0.04405  -1.40826
    Z3       -0.87612  -0.02924   0.00000  -0.08719  -0.04961  -0.92573
         Item               Value     Threshold  Converged?
 Maximum Force            0.058473     0.000450     NO 
 RMS     Force            0.024954     0.000300     NO 
 Maximum Displacement     0.099225     0.001800     NO 
 RMS     Displacement     0.045522     0.001200     NO 
 Predicted change in Energy=-3.673038D-03
 GradGradGradGradGradGradGradGradGradGradGradGradGradGradGradGradGradGrad

 Leave Link  103 at Sun Oct 22 22:13:54 2017, MaxMem=   402653184 cpu:         0.5
 (Enter /home/acad/unamur-ucpts/pbeaujea/gaussian/g09/l9999.exe)

 Test job not archived.
 1\1\GINC-NODE0716\Force\RHF\Gen\H2O1\PBEAUJEA\22-Oct-2017\0\\#P HF gen
  nosym scf=(Conver=11,NoVarAcc,MaxCyc=600,vshift=1000) IOP(9/6=600,9/9
 =11) force\\field(1)=O1(-1x)\\0,1\O,-0.00529177,0.,0.11590582\H,0.,0.7
 6852617,-0.46362327\H,0.,-0.76852617,-0.46362327\\Version=AM64L-G09Rev
 D.01\HF=-74.9630719\RMSD=5.064e-12\RMSF=2.495e-02\Dipole=0.0061409,0.,
 -0.6725225\Quadrupole=-0.612736,0.7171165,-0.1043805,0.,0.0007388,0.\P
 G=C02V [C2(O1),SGV(H2)]\\@


 NOTHING PUZZLES ME MORE THAN TIME AND SPACE; AND YET NOTHING TROUBLES ME LESS
                                                          -- CHARLES LAMB (1810)
 Job cpu time:       0 days  0 hours  0 minutes  4.6 seconds.
 File lengths (MBytes):  RWF=     62 Int=      0 D2E=      0 Chk=      2 Scr=      2
 Normal termination of Gaussian 09 at Sun Oct 22 22:13:54 2017.
