 Entering Gaussian System, Link 0=/home/acad/unamur-ucpts/pbeaujea/gaussian/g09/g09
 Initial command:
 /home/acad/unamur-ucpts/pbeaujea/gaussian/g09/l1.exe "/SCRATCH/acad/nlopt/pbeaujea/1346493[1].frontal2/Gau-13173.inp" -scrdir="/SCRATCH/acad/nlopt/pbeaujea/1346493[1].frontal2/"
 Entering Link 1 = /home/acad/unamur-ucpts/pbeaujea/gaussian/g09/l1.exe PID=     13176.
  
 Copyright (c) 1988,1990,1992,1993,1995,1998,2003,2009,2013,
            Gaussian, Inc.  All Rights Reserved.
  
 This is part of the Gaussian(R) 09 program.  It is based on
 the Gaussian(R) 03 system (copyright 2003, Gaussian, Inc.),
 the Gaussian(R) 98 system (copyright 1998, Gaussian, Inc.),
 the Gaussian(R) 94 system (copyright 1995, Gaussian, Inc.),
 the Gaussian 92(TM) system (copyright 1992, Gaussian, Inc.),
 the Gaussian 90(TM) system (copyright 1990, Gaussian, Inc.),
 the Gaussian 88(TM) system (copyright 1988, Gaussian, Inc.),
 the Gaussian 86(TM) system (copyright 1986, Carnegie Mellon
 University), and the Gaussian 82(TM) system (copyright 1983,
 Carnegie Mellon University). Gaussian is a federally registered
 trademark of Gaussian, Inc.
  
 This software contains proprietary and confidential information,
 including trade secrets, belonging to Gaussian, Inc.
  
 This software is provided under written license and may be
 used, copied, transmitted, or stored only in accord with that
 written license.
  
 The following legend is applicable only to US Government
 contracts under FAR:
  
                    RESTRICTED RIGHTS LEGEND
  
 Use, reproduction and disclosure by the US Government is
 subject to restrictions as set forth in subparagraphs (a)
 and (c) of the Commercial Computer Software - Restricted
 Rights clause in FAR 52.227-19.
  
 Gaussian, Inc.
 340 Quinnipiac St., Bldg. 40, Wallingford CT 06492
  
  
 ---------------------------------------------------------------
 Warning -- This program may not be used in any manner that
 competes with the business of Gaussian, Inc. or will provide
 assistance to any competitor of Gaussian, Inc.  The licensee
 of this program is prohibited from giving any competitor of
 Gaussian, Inc. access to this program.  By using this program,
 the user acknowledges that Gaussian, Inc. is engaged in the
 business of creating and licensing software in the field of
 computational chemistry and represents and warrants to the
 licensee that it is not a competitor of Gaussian, Inc. and that
 it will not use this program in any manner prohibited above.
 ---------------------------------------------------------------
  

 Cite this work as:
 Gaussian 09, Revision D.01,
 M. J. Frisch, G. W. Trucks, H. B. Schlegel, G. E. Scuseria, 
 M. A. Robb, J. R. Cheeseman, G. Scalmani, V. Barone, B. Mennucci, 
 G. A. Petersson, H. Nakatsuji, M. Caricato, X. Li, H. P. Hratchian, 
 A. F. Izmaylov, J. Bloino, G. Zheng, J. L. Sonnenberg, M. Hada, 
 M. Ehara, K. Toyota, R. Fukuda, J. Hasegawa, M. Ishida, T. Nakajima, 
 Y. Honda, O. Kitao, H. Nakai, T. Vreven, J. A. Montgomery, Jr., 
 J. E. Peralta, F. Ogliaro, M. Bearpark, J. J. Heyd, E. Brothers, 
 K. N. Kudin, V. N. Staroverov, T. Keith, R. Kobayashi, J. Normand, 
 K. Raghavachari, A. Rendell, J. C. Burant, S. S. Iyengar, J. Tomasi, 
 M. Cossi, N. Rega, J. M. Millam, M. Klene, J. E. Knox, J. B. Cross, 
 V. Bakken, C. Adamo, J. Jaramillo, R. Gomperts, R. E. Stratmann, 
 O. Yazyev, A. J. Austin, R. Cammi, C. Pomelli, J. W. Ochterski, 
 R. L. Martin, K. Morokuma, V. G. Zakrzewski, G. A. Voth, 
 P. Salvador, J. J. Dannenberg, S. Dapprich, A. D. Daniels, 
 O. Farkas, J. B. Foresman, J. V. Ortiz, J. Cioslowski, 
 and D. J. Fox, Gaussian, Inc., Wallingford CT, 2013.
 
 ******************************************
 Gaussian 09:  AM64L-G09RevD.01 24-Apr-2013
                17-Aug-2017 
 ******************************************
 %mem=3gb
 %chk=CH4_0001
 %nprocshared=4
 Will use up to    4 processors via shared memory.
 ----------------------------------------------------------------------
 #p HF gen nosym scf=(Conver=11,NoVarAcc,MaxCyc=600,vshift=1000) IOP(9/
 6=600,9/9=11) freq
 ----------------------------------------------------------------------
 1/10=4,30=1,38=1/1,3;
 2/12=2,15=1,17=6,18=5,40=1/2;
 3/5=7,11=9,16=1,25=1,30=1,71=2,140=1/1,2,3;
 4//1;
 5/5=2,6=11,7=600,10=1000,38=1,98=1/2;
 8/6=4,10=90,11=11/1;
 10/13=10,15=4,31=1/2;
 11/6=3,8=1,9=11,15=111,16=1,31=1/1,2,10;
 10/6=1,31=1/2;
 6/7=2,8=2,9=2,10=2,18=1,28=1/1;
 7/8=1,10=1,25=1,30=1/1,2,3,16;
 1/10=4,30=1/3;
 99//99;
 Leave Link    1 at Thu Aug 17 20:50:54 2017, MaxMem=   402653184 cpu:         0.2
 (Enter /home/acad/unamur-ucpts/pbeaujea/gaussian/g09/l101.exe)
 --------
 no-field
 --------
 Symbolic Z-matrix:
 Charge =  0 Multiplicity = 1
 C                     0.        0.        0. 
 H                    -0.62933   0.62933  -0.62933 
 H                    -0.62933  -0.62933   0.62933 
 H                     0.62933   0.62933   0.62933 
 H                     0.62933  -0.62933  -0.62933 
 
 NAtoms=      5 NQM=        5 NQMF=       0 NMMI=      0 NMMIF=      0
                NMic=       0 NMicF=      0.
                    Isotopes and Nuclear Properties:
 (Nuclear quadrupole moments (NQMom) in fm**2, nuclear magnetic moments (NMagM)
  in nuclear magnetons)

  Atom         1           2           3           4           5
 IAtWgt=          12           1           1           1           1
 AtmWgt=  12.0000000   1.0078250   1.0078250   1.0078250   1.0078250
 NucSpn=           0           1           1           1           1
 AtZEff=   0.0000000   0.0000000   0.0000000   0.0000000   0.0000000
 NQMom=    0.0000000   0.0000000   0.0000000   0.0000000   0.0000000
 NMagM=    0.0000000   2.7928460   2.7928460   2.7928460   2.7928460
 AtZNuc=   6.0000000   1.0000000   1.0000000   1.0000000   1.0000000
 Leave Link  101 at Thu Aug 17 20:50:55 2017, MaxMem=   402653184 cpu:         0.3
 (Enter /home/acad/unamur-ucpts/pbeaujea/gaussian/g09/l103.exe)

 GradGradGradGradGradGradGradGradGradGradGradGradGradGradGradGradGradGrad
 Berny optimization.
 Initialization pass.
 Trust Radius=3.00D-01 FncErr=1.00D-07 GrdErr=1.00D-07
 Number of steps in this run=      2 maximum allowed number of steps=      2.
 GradGradGradGradGradGradGradGradGradGradGradGradGradGradGradGradGradGrad

 Leave Link  103 at Thu Aug 17 20:50:55 2017, MaxMem=   402653184 cpu:         0.1
 (Enter /home/acad/unamur-ucpts/pbeaujea/gaussian/g09/l202.exe)
                          Input orientation:                          
 ---------------------------------------------------------------------
 Center     Atomic      Atomic             Coordinates (Angstroms)
 Number     Number       Type             X           Y           Z
 ---------------------------------------------------------------------
      1          6           0        0.000000    0.000000    0.000000
      2          1           0       -0.629330    0.629330   -0.629330
      3          1           0       -0.629330   -0.629330    0.629330
      4          1           0        0.629330    0.629330    0.629330
      5          1           0        0.629330   -0.629330   -0.629330
 ---------------------------------------------------------------------
                    Distance matrix (angstroms):
                    1          2          3          4          5
     1  C    0.000000
     2  H    1.090031   0.000000
     3  H    1.090031   1.780013   0.000000
     4  H    1.090031   1.780013   1.780013   0.000000
     5  H    1.090031   1.780013   1.780013   1.780013   0.000000
 Symmetry turned off by external request.
 Stoichiometry    CH4
 Framework group  TD[O(C),4C3(H)]
 Deg. of freedom     1
 Full point group                 TD      NOp  24
 Rotational constants (GHZ):    158.2653256    158.2653244    158.2653244
 Leave Link  202 at Thu Aug 17 20:50:55 2017, MaxMem=   402653184 cpu:         0.0
 (Enter /home/acad/unamur-ucpts/pbeaujea/gaussian/g09/l301.exe)
 General basis read from cards:  (5D, 7F)
 Centers:       2      3      4      5
 S 4 1.00
     Exponent=  3.3865014000D+01 Coefficients=  6.0680000000D-03
     Exponent=  5.0947880000D+00 Coefficients=  4.5316000000D-02
     Exponent=  1.1587860000D+00 Coefficients=  2.0284600000D-01
     Exponent=  3.2584000000D-01 Coefficients=  5.0370900000D-01
 S 1 1.00
     Exponent=  1.0274100000D-01 Coefficients=  1.0000000000D+00
 S 1 1.00
     Exponent=  3.2400000000D-02 Coefficients=  1.0000000000D+00
 P 2 1.00
     Exponent=  1.1588000000D+00 Coefficients=  1.8844000000D-01
     Exponent=  3.2580000000D-01 Coefficients=  8.8242000000D-01
 P 2 1.00
     Exponent=  1.0270000000D-01 Coefficients=  1.1780000000D-01
     Exponent=  3.2400000000D-02 Coefficients=  4.2000000000D-03
 ****
 Centers:       1
 S 5 1.00
     Exponent=  5.2406353000D+03 Coefficients=  9.3700000000D-04
     Exponent=  7.8220480000D+02 Coefficients=  7.2280000000D-03
     Exponent=  1.7835083000D+02 Coefficients=  3.6344000000D-02
     Exponent=  5.0815942000D+01 Coefficients=  1.3060000000D-01
     Exponent=  1.6823562000D+01 Coefficients=  3.1893100000D-01
 S 2 1.00
     Exponent=  6.1757760000D+00 Coefficients=  4.3874200000D-01
     Exponent=  2.4180490000D+00 Coefficients=  2.1497400000D-01
 S 1 1.00
     Exponent=  5.1190000000D-01 Coefficients=  1.0000000000D+00
 S 1 1.00
     Exponent=  1.5659000000D-01 Coefficients=  1.0000000000D+00
 S 1 1.00
     Exponent=  4.7900000000D-02 Coefficients=  1.0000000000D+00
 P 4 1.00
     Exponent=  1.8841800000D+01 Coefficients=  1.3887000000D-02
     Exponent=  4.1592400000D+00 Coefficients=  8.6279000000D-02
     Exponent=  1.2067100000D+00 Coefficients=  2.8874400000D-01
     Exponent=  3.8554000000D-01 Coefficients=  4.9941100000D-01
 P 1 1.00
     Exponent=  1.2194000000D-01 Coefficients=  1.0000000000D+00
 P 1 1.00
     Exponent=  3.8568000000D-02 Coefficients=  1.0000000000D+00
 D 2 1.00
     Exponent=  1.2067000000D+00 Coefficients=  2.6285000000D-01
     Exponent=  3.8550000000D-01 Coefficients=  8.0430000000D-01
 D 2 1.00
     Exponent=  1.2190000000D-01 Coefficients=  6.5350000000D-01
     Exponent=  3.8600000000D-02 Coefficients=  8.6360000000D-01
 ****
 Ernie: Thresh=  0.10000D-02 Tol=  0.10000D-05 Strict=F.
    60 basis functions,   124 primitive gaussians,    62 cartesian basis functions
     5 alpha electrons        5 beta electrons
       nuclear repulsion energy        13.4350094388 Hartrees.
 IExCor=    0 DFT=F Ex=HF Corr=None ExCW=0 ScaHFX=  1.000000
 ScaDFX=  1.000000  1.000000  1.000000  1.000000 ScalE2=  1.000000  1.000000
 IRadAn=      0 IRanWt=     -1 IRanGd=            0 ICorTp=0 IEmpDi=  4
 NAtoms=    5 NActive=    5 NUniq=    5 SFac= 1.00D+00 NAtFMM=   60 NAOKFM=F Big=F
 Integral buffers will be    131072 words long.
 Raffenetti 1 integral format.
 Two-electron integral symmetry is turned off.
 Leave Link  301 at Thu Aug 17 20:50:55 2017, MaxMem=   402653184 cpu:         0.2
 (Enter /home/acad/unamur-ucpts/pbeaujea/gaussian/g09/l302.exe)
 NPDir=0 NMtPBC=     1 NCelOv=     1 NCel=       1 NClECP=     1 NCelD=      1
         NCelK=      1 NCelE2=     1 NClLst=     1 CellRange=     0.0.
 One-electron integrals computed using PRISM.
 NBasis=    60 RedAO= T EigKep=  3.55D-04  NBF=    60
 NBsUse=    60 1.00D-06 EigRej= -1.00D+00 NBFU=    60
 Leave Link  302 at Thu Aug 17 20:50:55 2017, MaxMem=   402653184 cpu:         0.5
 (Enter /home/acad/unamur-ucpts/pbeaujea/gaussian/g09/l303.exe)
 DipDrv:  MaxL=1.
 Leave Link  303 at Thu Aug 17 20:50:55 2017, MaxMem=   402653184 cpu:         0.1
 (Enter /home/acad/unamur-ucpts/pbeaujea/gaussian/g09/l401.exe)
 ExpMin= 3.24D-02 ExpMax= 5.24D+03 ExpMxC= 7.82D+02 IAcc=3 IRadAn=         5 AccDes= 0.00D+00
 Harris functional with IExCor=  205 and IRadAn=       5 diagonalized for initial guess.
 HarFok:  IExCor=  205 AccDes= 0.00D+00 IRadAn=         5 IDoV= 1 UseB2=F ITyADJ=14
 ICtDFT=  3500011 ScaDFX=  1.000000  1.000000  1.000000  1.000000
 FoFCou: FMM=F IPFlag=           0 FMFlag=      100000 FMFlg1=           0
         NFxFlg=           0 DoJE=T BraDBF=F KetDBF=T FulRan=T
         wScrn=  0.000000 ICntrl=     500 IOpCl=  0 I1Cent=   200000004 NGrid=           0
         NMat0=    1 NMatS0=      1 NMatT0=    0 NMatD0=    1 NMtDS0=    0 NMtDT0=    0
 Symmetry not used in FoFCou.
 Harris En= -40.3742541490037    
 JPrj=0 DoOrth=F DoCkMO=F.
 Leave Link  401 at Thu Aug 17 20:50:55 2017, MaxMem=   402653184 cpu:         0.9
 (Enter /home/acad/unamur-ucpts/pbeaujea/gaussian/g09/l502.exe)
 Closed shell SCF:
 Using DIIS extrapolation, IDIIS=  1040.
 Two-electron integral symmetry not used.
 Keep R1 ints in memory in canonical form, NReq=2907075.
 IVT=      376812 IEndB=      376812 NGot=   402653184 MDV=   400601008
 LenX=   400601008 LenY=   400596723
 Requested convergence on RMS density matrix=1.00D-11 within 600 cycles.
 Requested convergence on MAX density matrix=1.00D-09.
 Requested convergence on             energy=1.00D-09.
 Virtual orbitals will be shifted by   1.000 hartree.
 No special actions if energy rises.
 FoFCou: FMM=F IPFlag=           0 FMFlag=           0 FMFlg1=           0
         NFxFlg=           0 DoJE=F BraDBF=F KetDBF=F FulRan=T
         wScrn=  0.000000 ICntrl=     600 IOpCl=  0 I1Cent=           0 NGrid=           0
         NMat0=    1 NMatS0=   1830 NMatT0=    0 NMatD0=    1 NMtDS0=    0 NMtDT0=    0
 Symmetry not used in FoFCou.

 Cycle   1  Pass 1  IDiag  1:
 E= -40.0822878462168    
 DIIS: error= 5.43D-02 at cycle   1 NSaved=   1.
 NSaved= 1 IEnMin= 1 EnMin= -40.0822878462168     IErMin= 1 ErrMin= 5.43D-02
 ErrMax= 5.43D-02  0.00D+00 EMaxC= 1.00D-01 BMatC= 1.43D-01 BMatP= 1.43D-01
 IDIUse=3 WtCom= 4.57D-01 WtEn= 5.43D-01
 Coeff-Com:  0.100D+01
 Coeff-En:   0.100D+01
 Coeff:      0.100D+01
 Gap=     0.525 Goal=   None    Shift=    1.000
 GapD=    0.525 DampG=2.000 DampE=0.500 DampFc=1.0000 IDamp=-1.
 RMSDP=1.66D-02 MaxDP=1.21D-01              OVMax= 7.31D-02

 Cycle   2  Pass 1  IDiag  1:
 E= -40.1932977771292     Delta-E=       -0.111009930912 Rises=F Damp=F
 DIIS: error= 1.25D-02 at cycle   2 NSaved=   2.
 NSaved= 2 IEnMin= 2 EnMin= -40.1932977771292     IErMin= 2 ErrMin= 1.25D-02
 ErrMax= 1.25D-02  0.00D+00 EMaxC= 1.00D-01 BMatC= 7.12D-03 BMatP= 1.43D-01
 IDIUse=3 WtCom= 8.75D-01 WtEn= 1.25D-01
 Coeff-Com: -0.202D+00 0.120D+01
 Coeff-En:   0.000D+00 0.100D+01
 Coeff:     -0.177D+00 0.118D+01
 Gap=     0.564 Goal=   None    Shift=    1.000
 RMSDP=2.97D-03 MaxDP=2.17D-02 DE=-1.11D-01 OVMax= 1.78D-02

 Cycle   3  Pass 1  IDiag  1:
 E= -40.2005637450508     Delta-E=       -0.007265967922 Rises=F Damp=F
 DIIS: error= 5.23D-03 at cycle   3 NSaved=   3.
 NSaved= 3 IEnMin= 3 EnMin= -40.2005637450508     IErMin= 3 ErrMin= 5.23D-03
 ErrMax= 5.23D-03  0.00D+00 EMaxC= 1.00D-01 BMatC= 1.31D-03 BMatP= 7.12D-03
 IDIUse=3 WtCom= 9.48D-01 WtEn= 5.23D-02
 Coeff-Com:  0.244D-01-0.608D+00 0.158D+01
 Coeff-En:   0.000D+00 0.000D+00 0.100D+01
 Coeff:      0.231D-01-0.577D+00 0.155D+01
 Gap=     0.574 Goal=   None    Shift=    1.000
 DSYEVD-2 returned Info=          91 IAlg= 4 N=    60 NDim=    60 NE2=     6676611 trying  DSYEV.
 RMSDP=9.56D-04 MaxDP=1.12D-02 DE=-7.27D-03 OVMax= 1.00D-02

 Cycle   4  Pass 1  IDiag  1:
 E= -40.2024842067749     Delta-E=       -0.001920461724 Rises=F Damp=F
 DIIS: error= 3.11D-03 at cycle   4 NSaved=   4.
 NSaved= 4 IEnMin= 4 EnMin= -40.2024842067749     IErMin= 4 ErrMin= 3.11D-03
 ErrMax= 3.11D-03  0.00D+00 EMaxC= 1.00D-01 BMatC= 3.46D-04 BMatP= 1.31D-03
 IDIUse=3 WtCom= 9.69D-01 WtEn= 3.11D-02
 Coeff-Com:  0.586D-02 0.110D+00-0.129D+01 0.217D+01
 Coeff-En:   0.000D+00 0.000D+00 0.000D+00 0.100D+01
 Coeff:      0.568D-02 0.106D+00-0.125D+01 0.213D+01
 Gap=     0.581 Goal=   None    Shift=    1.000
 RMSDP=9.50D-04 MaxDP=1.58D-02 DE=-1.92D-03 OVMax= 5.96D-03

 Cycle   5  Pass 1  IDiag  1:
 E= -40.2030829668475     Delta-E=       -0.000598760073 Rises=F Damp=F
 DIIS: error= 1.85D-03 at cycle   5 NSaved=   5.
 NSaved= 5 IEnMin= 5 EnMin= -40.2030829668475     IErMin= 5 ErrMin= 1.85D-03
 ErrMax= 1.85D-03  0.00D+00 EMaxC= 1.00D-01 BMatC= 1.13D-04 BMatP= 3.46D-04
 IDIUse=3 WtCom= 9.81D-01 WtEn= 1.85D-02
 Coeff-Com: -0.217D-01 0.119D+00 0.853D-01-0.177D+01 0.259D+01
 Coeff-En:   0.000D+00 0.000D+00 0.000D+00 0.000D+00 0.100D+01
 Coeff:     -0.213D-01 0.116D+00 0.838D-01-0.174D+01 0.256D+01
 Gap=     0.581 Goal=   None    Shift=    1.000
 RMSDP=6.82D-04 MaxDP=1.11D-02 DE=-5.99D-04 OVMax= 3.85D-03

 Cycle   6  Pass 1  IDiag  1:
 E= -40.2032973862624     Delta-E=       -0.000214419415 Rises=F Damp=F
 DIIS: error= 1.05D-03 at cycle   6 NSaved=   6.
 NSaved= 6 IEnMin= 6 EnMin= -40.2032973862624     IErMin= 6 ErrMin= 1.05D-03
 ErrMax= 1.05D-03  0.00D+00 EMaxC= 1.00D-01 BMatC= 3.67D-05 BMatP= 1.13D-04
 IDIUse=3 WtCom= 9.90D-01 WtEn= 1.05D-02
 Coeff-Com:  0.797D-02-0.484D-01-0.985D-01 0.143D+01-0.415D+01 0.385D+01
 Coeff-En:   0.000D+00 0.000D+00 0.000D+00 0.000D+00 0.000D+00 0.100D+01
 Coeff:      0.789D-02-0.479D-01-0.974D-01 0.142D+01-0.410D+01 0.382D+01
 Gap=     0.582 Goal=   None    Shift=    1.000
 RMSDP=3.43D-04 MaxDP=5.15D-03 DE=-2.14D-04 OVMax= 2.31D-03

 Cycle   7  Pass 1  IDiag  1:
 E= -40.2033686126352     Delta-E=       -0.000071226373 Rises=F Damp=F
 DIIS: error= 5.85D-04 at cycle   7 NSaved=   7.
 NSaved= 7 IEnMin= 7 EnMin= -40.2033686126352     IErMin= 7 ErrMin= 5.85D-04
 ErrMax= 5.85D-04  0.00D+00 EMaxC= 1.00D-01 BMatC= 1.20D-05 BMatP= 3.67D-05
 IDIUse=3 WtCom= 9.94D-01 WtEn= 5.85D-03
 Coeff-Com: -0.115D-01 0.754D-01 0.248D-02-0.147D+01 0.542D+01-0.888D+01
 Coeff-Com:  0.587D+01
 Coeff-En:   0.000D+00 0.000D+00 0.000D+00 0.000D+00 0.000D+00 0.000D+00
 Coeff-En:   0.100D+01
 Coeff:     -0.114D-01 0.750D-01 0.247D-02-0.146D+01 0.539D+01-0.883D+01
 Coeff:      0.584D+01
 Gap=     0.582 Goal=   None    Shift=    1.000
 RMSDP=1.59D-04 MaxDP=1.59D-03 DE=-7.12D-05 OVMax= 1.32D-03

 Cycle   8  Pass 1  IDiag  1:
 E= -40.2033915516083     Delta-E=       -0.000022938973 Rises=F Damp=F
 DIIS: error= 3.29D-04 at cycle   8 NSaved=   8.
 NSaved= 8 IEnMin= 8 EnMin= -40.2033915516083     IErMin= 8 ErrMin= 3.29D-04
 ErrMax= 3.29D-04  0.00D+00 EMaxC= 1.00D-01 BMatC= 3.98D-06 BMatP= 1.20D-05
 IDIUse=3 WtCom= 9.97D-01 WtEn= 3.29D-03
 Coeff-Com:  0.619D-02-0.390D-01-0.443D-01 0.936D+00-0.304D+01 0.525D+01
 Coeff-Com: -0.646D+01 0.439D+01
 Coeff-En:   0.000D+00 0.000D+00 0.000D+00 0.000D+00 0.000D+00 0.000D+00
 Coeff-En:   0.000D+00 0.100D+01
 Coeff:      0.617D-02-0.388D-01-0.442D-01 0.933D+00-0.303D+01 0.524D+01
 Coeff:     -0.644D+01 0.438D+01
 Gap=     0.582 Goal=   None    Shift=    1.000
 RMSDP=9.40D-05 MaxDP=9.56D-04 DE=-2.29D-05 OVMax= 7.42D-04

 Cycle   9  Pass 1  IDiag  1:
 E= -40.2033989837233     Delta-E=       -0.000007432115 Rises=F Damp=F
 DIIS: error= 1.86D-04 at cycle   9 NSaved=   9.
 NSaved= 9 IEnMin= 9 EnMin= -40.2033989837233     IErMin= 9 ErrMin= 1.86D-04
 ErrMax= 1.86D-04  0.00D+00 EMaxC= 1.00D-01 BMatC= 1.31D-06 BMatP= 3.98D-06
 IDIUse=3 WtCom= 9.98D-01 WtEn= 1.86D-03
 Coeff-Com: -0.303D-02 0.178D-01 0.349D-01-0.536D+00 0.168D+01-0.259D+01
 Coeff-Com:  0.348D+01-0.581D+01 0.473D+01
 Coeff-En:   0.000D+00 0.000D+00 0.000D+00 0.000D+00 0.000D+00 0.000D+00
 Coeff-En:   0.000D+00 0.000D+00 0.100D+01
 Coeff:     -0.302D-02 0.177D-01 0.348D-01-0.535D+00 0.167D+01-0.259D+01
 Coeff:      0.348D+01-0.580D+01 0.472D+01
 Gap=     0.582 Goal=   None    Shift=    1.000
 RMSDP=6.57D-05 MaxDP=5.60D-04 DE=-7.43D-06 OVMax= 4.31D-04

 Cycle  10  Pass 1  IDiag  1:
 E= -40.2034014613982     Delta-E=       -0.000002477675 Rises=F Damp=F
 DIIS: error= 1.06D-04 at cycle  10 NSaved=  10.
 NSaved=10 IEnMin=10 EnMin= -40.2034014613982     IErMin=10 ErrMin= 1.06D-04
 ErrMax= 1.06D-04  0.00D+00 EMaxC= 1.00D-01 BMatC= 4.44D-07 BMatP= 1.31D-06
 IDIUse=3 WtCom= 9.99D-01 WtEn= 1.06D-03
 Coeff-Com:  0.764D-03-0.260D-02-0.242D-01 0.193D+00-0.542D+00 0.843D+00
 Coeff-Com: -0.127D+01 0.338D+01-0.686D+01 0.528D+01
 Coeff-En:   0.000D+00 0.000D+00 0.000D+00 0.000D+00 0.000D+00 0.000D+00
 Coeff-En:   0.000D+00 0.000D+00 0.000D+00 0.100D+01
 Coeff:      0.763D-03-0.259D-02-0.242D-01 0.193D+00-0.542D+00 0.842D+00
 Coeff:     -0.127D+01 0.338D+01-0.685D+01 0.528D+01
 Gap=     0.582 Goal=   None    Shift=    1.000
 RMSDP=4.40D-05 MaxDP=4.07D-04 DE=-2.48D-06 OVMax= 2.51D-04

 Cycle  11  Pass 1  IDiag  1:
 E= -40.2034022989732     Delta-E=       -0.000000837575 Rises=F Damp=F
 DIIS: error= 6.07D-05 at cycle  11 NSaved=  11.
 NSaved=11 IEnMin=11 EnMin= -40.2034022989732     IErMin=11 ErrMin= 6.07D-05
 ErrMax= 6.07D-05  0.00D+00 EMaxC= 1.00D-01 BMatC= 1.48D-07 BMatP= 4.44D-07
 IDIUse=1 WtCom= 1.00D+00 WtEn= 0.00D+00
 Coeff-Com:  0.254D-03-0.260D-02 0.864D-02-0.459D-02-0.463D-01 0.137D+00
 Coeff-Com: -0.735D-01-0.378D+00 0.215D+01-0.563D+01 0.484D+01
 Coeff:      0.254D-03-0.260D-02 0.864D-02-0.459D-02-0.463D-01 0.137D+00
 Coeff:     -0.735D-01-0.378D+00 0.215D+01-0.563D+01 0.484D+01
 Gap=     0.582 Goal=   None    Shift=    1.000
 RMSDP=2.63D-05 MaxDP=2.96D-04 DE=-8.38D-07 OVMax= 1.46D-04

 Cycle  12  Pass 1  IDiag  1:
 E= -40.2034025818030     Delta-E=       -0.000000282830 Rises=F Damp=F
 DIIS: error= 3.49D-05 at cycle  12 NSaved=  12.
 NSaved=12 IEnMin=12 EnMin= -40.2034025818030     IErMin=12 ErrMin= 3.49D-05
 ErrMax= 3.49D-05  0.00D+00 EMaxC= 1.00D-01 BMatC= 5.05D-08 BMatP= 1.48D-07
 IDIUse=1 WtCom= 1.00D+00 WtEn= 0.00D+00
 Large coefficients: NSaved= 12 BigCof=   15.97 CofMax=   10.00 Det=-8.31D-13
 Inversion failed.  Reducing to 11 matrices.
 Large coefficients: NSaved= 11 BigCof=   16.00 CofMax=   10.00 Det=-8.44D-13
 Inversion failed.  Reducing to 10 matrices.
 Coeff-Com:  0.200D-03 0.102D-02-0.795D-02 0.545D-02 0.665D-01-0.121D+00
 Coeff-Com: -0.178D-01 0.131D+01-0.472D+01 0.448D+01
 Coeff:      0.200D-03 0.102D-02-0.795D-02 0.545D-02 0.665D-01-0.121D+00
 Coeff:     -0.178D-01 0.131D+01-0.472D+01 0.448D+01
 Gap=     0.582 Goal=   None    Shift=    1.000
 RMSDP=1.45D-05 MaxDP=1.84D-04 DE=-2.83D-07 OVMax= 8.55D-05

 Cycle  13  Pass 1  IDiag  1:
 E= -40.2034026790301     Delta-E=       -0.000000097227 Rises=F Damp=F
 DIIS: error= 2.01D-05 at cycle  13 NSaved=  11.
 NSaved=11 IEnMin=11 EnMin= -40.2034026790301     IErMin=11 ErrMin= 2.01D-05
 ErrMax= 2.01D-05  0.00D+00 EMaxC= 1.00D-01 BMatC= 1.74D-08 BMatP= 5.05D-08
 IDIUse=1 WtCom= 1.00D+00 WtEn= 0.00D+00
 Coeff-Com:  0.483D-04 0.394D-03-0.121D-02-0.712D-02 0.301D-01-0.451D-01
 Coeff-Com:  0.413D-01 0.167D+00 0.989D+00-0.520D+01 0.502D+01
 Coeff:      0.483D-04 0.394D-03-0.121D-02-0.712D-02 0.301D-01-0.451D-01
 Coeff:      0.413D-01 0.167D+00 0.989D+00-0.520D+01 0.502D+01
 Gap=     0.582 Goal=   None    Shift=    1.000
 RMSDP=7.61D-06 MaxDP=1.07D-04 DE=-9.72D-08 OVMax= 5.07D-05

 Cycle  14  Pass 1  IDiag  1:
 E= -40.2034027130177     Delta-E=       -0.000000033988 Rises=F Damp=F
 DIIS: error= 1.19D-05 at cycle  14 NSaved=  12.
 NSaved=12 IEnMin=12 EnMin= -40.2034027130177     IErMin=12 ErrMin= 1.19D-05
 ErrMax= 1.19D-05  0.00D+00 EMaxC= 1.00D-01 BMatC= 6.04D-09 BMatP= 1.74D-08
 IDIUse=1 WtCom= 1.00D+00 WtEn= 0.00D+00
 Coeff-Com:  0.673D-04 0.369D-03-0.151D-02-0.299D-02 0.969D-02 0.141D-01
 Coeff-Com: -0.220D-01 0.419D+00-0.207D+01 0.470D+01-0.713D+01 0.509D+01
 Coeff:      0.673D-04 0.369D-03-0.151D-02-0.299D-02 0.969D-02 0.141D-01
 Coeff:     -0.220D-01 0.419D+00-0.207D+01 0.470D+01-0.713D+01 0.509D+01
 Gap=     0.582 Goal=   None    Shift=    1.000
 RMSDP=4.22D-06 MaxDP=6.31D-05 DE=-3.40D-08 OVMax= 3.01D-05

 Cycle  15  Pass 1  IDiag  1:
 E= -40.2034027249635     Delta-E=       -0.000000011946 Rises=F Damp=F
 DIIS: error= 7.11D-06 at cycle  15 NSaved=  13.
 NSaved=13 IEnMin=13 EnMin= -40.2034027249635     IErMin=13 ErrMin= 7.11D-06
 ErrMax= 7.11D-06  0.00D+00 EMaxC= 1.00D-01 BMatC= 2.11D-09 BMatP= 6.04D-09
 IDIUse=1 WtCom= 1.00D+00 WtEn= 0.00D+00
 Large coefficients: NSaved= 13 BigCof=   11.80 CofMax=   10.00 Det=-1.56D-14
 Inversion failed.  Reducing to 12 matrices.
 Large coefficients: NSaved= 12 BigCof=   11.81 CofMax=   10.00 Det=-1.57D-14
 Inversion failed.  Reducing to 11 matrices.
 Large coefficients: NSaved= 11 BigCof=   11.21 CofMax=   10.00 Det=-1.75D-14
 Inversion failed.  Reducing to 10 matrices.
 Large coefficients: NSaved= 10 BigCof=   11.08 CofMax=   10.00 Det=-1.80D-14
 Inversion failed.  Reducing to  9 matrices.
 Large coefficients: NSaved=  9 BigCof=   11.11 CofMax=   10.00 Det=-1.84D-14
 Inversion failed.  Reducing to  8 matrices.
 Large coefficients: NSaved=  8 BigCof=   11.11 CofMax=   10.00 Det=-2.15D-14
 Inversion failed.  Reducing to  7 matrices.
 Coeff-Com: -0.126D-01-0.156D+00 0.125D+01-0.316D+01 0.564D+01-0.884D+01
 Coeff-Com:  0.627D+01
 Coeff:     -0.126D-01-0.156D+00 0.125D+01-0.316D+01 0.564D+01-0.884D+01
 Coeff:      0.627D+01
 Gap=     0.582 Goal=   None    Shift=    1.000
 RMSDP=2.25D-06 MaxDP=3.41D-05 DE=-1.19D-08 OVMax= 1.80D-05

 Cycle  16  Pass 1  IDiag  1:
 E= -40.2034027292085     Delta-E=       -0.000000004245 Rises=F Damp=F
 DIIS: error= 4.26D-06 at cycle  16 NSaved=   8.
 NSaved= 8 IEnMin= 8 EnMin= -40.2034027292085     IErMin= 8 ErrMin= 4.26D-06
 ErrMax= 4.26D-06  0.00D+00 EMaxC= 1.00D-01 BMatC= 7.43D-10 BMatP= 2.11D-09
 IDIUse=1 WtCom= 1.00D+00 WtEn= 0.00D+00
 Coeff-Com: -0.115D-01 0.873D-01-0.344D+00 0.956D+00-0.116D+01 0.102D+01
 Coeff-Com: -0.352D+01 0.397D+01
 Coeff:     -0.115D-01 0.873D-01-0.344D+00 0.956D+00-0.116D+01 0.102D+01
 Coeff:     -0.352D+01 0.397D+01
 Gap=     0.582 Goal=   None    Shift=    1.000
 RMSDP=1.32D-06 MaxDP=1.87D-05 DE=-4.24D-09 OVMax= 1.08D-05

 Cycle  17  Pass 1  IDiag  1:
 E= -40.2034027307255     Delta-E=       -0.000000001517 Rises=F Damp=F
 DIIS: error= 2.55D-06 at cycle  17 NSaved=   9.
 NSaved= 9 IEnMin= 9 EnMin= -40.2034027307255     IErMin= 9 ErrMin= 2.55D-06
 ErrMax= 2.55D-06  0.00D+00 EMaxC= 1.00D-01 BMatC= 2.65D-10 BMatP= 7.43D-10
 IDIUse=1 WtCom= 1.00D+00 WtEn= 0.00D+00
 Large coefficients: NSaved=  9 BigCof=   12.42 CofMax=   10.00 Det=-2.90D-15
 Inversion failed.  Reducing to  8 matrices.
 Large coefficients: NSaved=  8 BigCof=   12.25 CofMax=   10.00 Det=-3.34D-15
 Inversion failed.  Reducing to  7 matrices.
 Coeff-Com: -0.172D+00 0.653D+00-0.539D+00-0.950D+00 0.467D+01-0.973D+01
 Coeff-Com:  0.707D+01
 Coeff:     -0.172D+00 0.653D+00-0.539D+00-0.950D+00 0.467D+01-0.973D+01
 Coeff:      0.707D+01
 Gap=     0.582 Goal=   None    Shift=    1.000
 RMSDP=8.53D-07 MaxDP=1.01D-05 DE=-1.52D-09 OVMax= 6.51D-06

 Cycle  18  Pass 1  IDiag  1:
 E= -40.2034027312754     Delta-E=       -0.000000000550 Rises=F Damp=F
 DIIS: error= 1.53D-06 at cycle  18 NSaved=   8.
 NSaved= 8 IEnMin= 8 EnMin= -40.2034027312754     IErMin= 8 ErrMin= 1.53D-06
 ErrMax= 1.53D-06  0.00D+00 EMaxC= 1.00D-01 BMatC= 9.53D-11 BMatP= 2.65D-10
 IDIUse=1 WtCom= 1.00D+00 WtEn= 0.00D+00
 Coeff-Com: -0.395D-01 0.195D+00-0.278D+00 0.192D+00-0.781D-01 0.723D+00
 Coeff-Com: -0.391D+01 0.420D+01
 Coeff:     -0.395D-01 0.195D+00-0.278D+00 0.192D+00-0.781D-01 0.723D+00
 Coeff:     -0.391D+01 0.420D+01
 Gap=     0.582 Goal=   None    Shift=    1.000
 RMSDP=5.81D-07 MaxDP=6.95D-06 DE=-5.50D-10 OVMax= 3.94D-06

 Cycle  19  Pass 1  IDiag  1:
 E= -40.2034027314760     Delta-E=       -0.000000000201 Rises=F Damp=F
 DIIS: error= 9.21D-07 at cycle  19 NSaved=   9.
 NSaved= 9 IEnMin= 9 EnMin= -40.2034027314760     IErMin= 9 ErrMin= 9.21D-07
 ErrMax= 9.21D-07  0.00D+00 EMaxC= 1.00D-01 BMatC= 3.46D-11 BMatP= 9.53D-11
 IDIUse=1 WtCom= 1.00D+00 WtEn= 0.00D+00
 Coeff-Com: -0.704D-01 0.265D+00-0.307D+00-0.804D-01 0.160D+01-0.404D+01
 Coeff-Com:  0.535D+01-0.666D+01 0.495D+01
 Coeff:     -0.704D-01 0.265D+00-0.307D+00-0.804D-01 0.160D+01-0.404D+01
 Coeff:      0.535D+01-0.666D+01 0.495D+01
 Gap=     0.582 Goal=   None    Shift=    1.000
 RMSDP=4.06D-07 MaxDP=5.16D-06 DE=-2.01D-10 OVMax= 2.40D-06

 Cycle  20  Pass 1  IDiag  1:
 E= -40.2034027315498     Delta-E=       -0.000000000074 Rises=F Damp=F
 DIIS: error= 5.56D-07 at cycle  20 NSaved=  10.
 NSaved=10 IEnMin=10 EnMin= -40.2034027315498     IErMin=10 ErrMin= 5.56D-07
 ErrMax= 5.56D-07  0.00D+00 EMaxC= 1.00D-01 BMatC= 1.26D-11 BMatP= 3.46D-11
 IDIUse=1 WtCom= 1.00D+00 WtEn= 0.00D+00
 Coeff-Com:  0.277D-02-0.147D-01 0.331D-01 0.352D-01-0.422D+00 0.108D+01
 Coeff-Com: -0.171D+01 0.439D+01-0.925D+01 0.685D+01
 Coeff:      0.277D-02-0.147D-01 0.331D-01 0.352D-01-0.422D+00 0.108D+01
 Coeff:     -0.171D+01 0.439D+01-0.925D+01 0.685D+01
 Gap=     0.582 Goal=   None    Shift=    1.000
 RMSDP=2.86D-07 MaxDP=3.69D-06 DE=-7.38D-11 OVMax= 1.46D-06

 Cycle  21  Pass 1  IDiag  1:
 E= -40.2034027315772     Delta-E=       -0.000000000027 Rises=F Damp=F
 DIIS: error= 3.36D-07 at cycle  21 NSaved=  11.
 NSaved=11 IEnMin=11 EnMin= -40.2034027315772     IErMin=11 ErrMin= 3.36D-07
 ErrMax= 3.36D-07  0.00D+00 EMaxC= 1.00D-01 BMatC= 4.64D-12 BMatP= 1.26D-11
 IDIUse=1 WtCom= 1.00D+00 WtEn= 0.00D+00
 Coeff-Com: -0.260D-01 0.937D-01-0.128D+00 0.473D-01 0.527D+00-0.162D+01
 Coeff-Com:  0.251D+01-0.371D+01 0.562D+01-0.765D+01 0.533D+01
 Coeff:     -0.260D-01 0.937D-01-0.128D+00 0.473D-01 0.527D+00-0.162D+01
 Coeff:      0.251D+01-0.371D+01 0.562D+01-0.765D+01 0.533D+01
 Gap=     0.582 Goal=   None    Shift=    1.000
 RMSDP=2.01D-07 MaxDP=2.57D-06 DE=-2.73D-11 OVMax= 8.91D-07

 Cycle  22  Pass 1  IDiag  1:
 E= -40.2034027315874     Delta-E=       -0.000000000010 Rises=F Damp=F
 DIIS: error= 2.04D-07 at cycle  22 NSaved=  12.
 NSaved=12 IEnMin=12 EnMin= -40.2034027315874     IErMin=12 ErrMin= 2.04D-07
 ErrMax= 2.04D-07  0.00D+00 EMaxC= 1.00D-01 BMatC= 1.72D-12 BMatP= 4.64D-12
 IDIUse=1 WtCom= 1.00D+00 WtEn= 0.00D+00
 Coeff-Com: -0.212D-02 0.633D-02-0.870D-02 0.291D-01-0.108D+00 0.238D+00
 Coeff-Com: -0.329D+00 0.909D+00-0.194D+01 0.246D+01-0.443D+01 0.418D+01
 Coeff:     -0.212D-02 0.633D-02-0.870D-02 0.291D-01-0.108D+00 0.238D+00
 Coeff:     -0.329D+00 0.909D+00-0.194D+01 0.246D+01-0.443D+01 0.418D+01
 Gap=     0.582 Goal=   None    Shift=    1.000
 DSYEVD-2 returned Info=          91 IAlg= 4 N=    60 NDim=    60 NE2=     6676611 trying  DSYEV.
 RMSDP=1.39D-07 MaxDP=1.75D-06 DE=-1.02D-11 OVMax= 5.46D-07

 Cycle  23  Pass 1  IDiag  1:
 E= -40.2034027315911     Delta-E=       -0.000000000004 Rises=F Damp=F
 DIIS: error= 1.24D-07 at cycle  23 NSaved=  13.
 NSaved=13 IEnMin=13 EnMin= -40.2034027315911     IErMin=13 ErrMin= 1.24D-07
 ErrMax= 1.24D-07  0.00D+00 EMaxC= 1.00D-01 BMatC= 6.39D-13 BMatP= 1.72D-12
 IDIUse=1 WtCom= 1.00D+00 WtEn= 0.00D+00
 Large coefficients: NSaved= 13 BigCof=   12.68 CofMax=   10.00 Det=-2.55D-19
 Inversion failed.  Reducing to 12 matrices.
 Large coefficients: NSaved= 12 BigCof=   12.27 CofMax=   10.00 Det=-2.67D-19
 Inversion failed.  Reducing to 11 matrices.
 Coeff-Com: -0.375D-02 0.680D-02 0.148D-01-0.592D-01 0.119D+00-0.302D+00
 Coeff-Com:  0.632D+00-0.683D+00 0.286D+01-0.835D+01 0.677D+01
 Coeff:     -0.375D-02 0.680D-02 0.148D-01-0.592D-01 0.119D+00-0.302D+00
 Coeff:      0.632D+00-0.683D+00 0.286D+01-0.835D+01 0.677D+01
 Gap=     0.582 Goal=   None    Shift=    1.000
 RMSDP=9.49D-08 MaxDP=1.18D-06 DE=-3.71D-12 OVMax= 3.35D-07

 Cycle  24  Pass 1  IDiag  1:
 E= -40.2034027315925     Delta-E=       -0.000000000001 Rises=F Damp=F
 DIIS: error= 7.55D-08 at cycle  24 NSaved=  12.
 NSaved=12 IEnMin=12 EnMin= -40.2034027315925     IErMin=12 ErrMin= 7.55D-08
 ErrMax= 7.55D-08  0.00D+00 EMaxC= 1.00D-01 BMatC= 2.39D-13 BMatP= 6.39D-13
 IDIUse=1 WtCom= 1.00D+00 WtEn= 0.00D+00
 Large coefficients: NSaved= 12 BigCof=   15.01 CofMax=   10.00 Det=-7.08D-20
 Inversion failed.  Reducing to 11 matrices.
 Large coefficients: NSaved= 11 BigCof=   14.99 CofMax=   10.00 Det=-7.08D-20
 Inversion failed.  Reducing to 10 matrices.
 Coeff-Com: -0.151D-01 0.575D-01-0.101D+00 0.983D-01 0.628D-01-0.169D+00
 Coeff-Com: -0.240D+00 0.308D+01-0.843D+01 0.665D+01
 Coeff:     -0.151D-01 0.575D-01-0.101D+00 0.983D-01 0.628D-01-0.169D+00
 Coeff:     -0.240D+00 0.308D+01-0.843D+01 0.665D+01
 Gap=     0.582 Goal=   None    Shift=    1.000
 RMSDP=6.43D-08 MaxDP=7.88D-07 DE=-1.49D-12 OVMax= 2.06D-07

 Cycle  25  Pass 1  IDiag  1:
 E= -40.2034027315931     Delta-E=       -0.000000000001 Rises=F Damp=F
 DIIS: error= 4.60D-08 at cycle  25 NSaved=  11.
 NSaved=11 IEnMin=11 EnMin= -40.2034027315931     IErMin=11 ErrMin= 4.60D-08
 ErrMax= 4.60D-08  0.00D+00 EMaxC= 1.00D-01 BMatC= 9.00D-14 BMatP= 2.39D-13
 IDIUse=1 WtCom= 1.00D+00 WtEn= 0.00D+00
 Coeff-Com: -0.854D-02 0.230D-01-0.199D-01 0.217D-01-0.320D-01 0.171D+00
 Coeff-Com: -0.313D+00-0.863D-01 0.232D+01-0.681D+01 0.573D+01
 Coeff:     -0.854D-02 0.230D-01-0.199D-01 0.217D-01-0.320D-01 0.171D+00
 Coeff:     -0.313D+00-0.863D-01 0.232D+01-0.681D+01 0.573D+01
 Gap=     0.582 Goal=   None    Shift=    1.000
 RMSDP=4.33D-08 MaxDP=5.22D-07 DE=-5.83D-13 OVMax= 1.27D-07

 Cycle  26  Pass 1  IDiag  1:
 E= -40.2034027315932     Delta-E=        0.000000000000 Rises=F Damp=F
 DIIS: error= 2.81D-08 at cycle  26 NSaved=  12.
 NSaved=12 IEnMin=12 EnMin= -40.2034027315932     IErMin=12 ErrMin= 2.81D-08
 ErrMax= 2.81D-08  0.00D+00 EMaxC= 1.00D-01 BMatC= 3.40D-14 BMatP= 9.00D-14
 IDIUse=1 WtCom= 1.00D+00 WtEn= 0.00D+00
 Coeff-Com: -0.475D-02 0.188D-01-0.372D-01 0.444D-01 0.874D-02-0.447D-01
 Coeff-Com: -0.419D+00 0.241D+01-0.549D+01 0.789D+01-0.967D+01 0.629D+01
 Coeff:     -0.475D-02 0.188D-01-0.372D-01 0.444D-01 0.874D-02-0.447D-01
 Coeff:     -0.419D+00 0.241D+01-0.549D+01 0.789D+01-0.967D+01 0.629D+01
 Gap=     0.582 Goal=   None    Shift=    1.000
 RMSDP=2.89D-08 MaxDP=3.43D-07 DE=-8.53D-14 OVMax= 7.84D-08

 Cycle  27  Pass 1  IDiag  1:
 E= -40.2034027315936     Delta-E=        0.000000000000 Rises=F Damp=F
 DIIS: error= 1.72D-08 at cycle  27 NSaved=  13.
 NSaved=13 IEnMin=13 EnMin= -40.2034027315936     IErMin=13 ErrMin= 1.72D-08
 ErrMax= 1.72D-08  0.00D+00 EMaxC= 1.00D-01 BMatC= 1.29D-14 BMatP= 3.40D-14
 IDIUse=1 WtCom= 1.00D+00 WtEn= 0.00D+00
 Coeff-Com: -0.237D-02 0.678D-02-0.832D-02 0.819D-04 0.368D-01-0.602D-01
 Coeff-Com:  0.442D-01 0.953D-01-0.143D+00-0.332D+00 0.163D+01-0.488D+01
 Coeff-Com:  0.461D+01
 Coeff:     -0.237D-02 0.678D-02-0.832D-02 0.819D-04 0.368D-01-0.602D-01
 Coeff:      0.442D-01 0.953D-01-0.143D+00-0.332D+00 0.163D+01-0.488D+01
 Coeff:      0.461D+01
 Gap=     0.582 Goal=   None    Shift=    1.000
 RMSDP=1.91D-08 MaxDP=2.24D-07 DE=-3.48D-13 OVMax= 4.85D-08

 Cycle  28  Pass 1  IDiag  1:
 E= -40.2034027315935     Delta-E=        0.000000000000 Rises=F Damp=F
 DIIS: error= 1.05D-08 at cycle  28 NSaved=  14.
 NSaved=14 IEnMin=13 EnMin= -40.2034027315936     IErMin=14 ErrMin= 1.05D-08
 ErrMax= 1.05D-08  0.00D+00 EMaxC= 1.00D-01 BMatC= 4.90D-15 BMatP= 1.29D-14
 IDIUse=1 WtCom= 1.00D+00 WtEn= 0.00D+00
 Coeff-Com: -0.474D-03 0.172D-02-0.358D-02 0.731D-02-0.115D-01 0.231D-01
 Coeff-Com: -0.199D+00 0.721D+00-0.105D+01 0.929D+00-0.160D+01 0.491D+01
 Coeff-Com: -0.966D+01 0.693D+01
 Coeff:     -0.474D-03 0.172D-02-0.358D-02 0.731D-02-0.115D-01 0.231D-01
 Coeff:     -0.199D+00 0.721D+00-0.105D+01 0.929D+00-0.160D+01 0.491D+01
 Coeff:     -0.966D+01 0.693D+01
 Gap=     0.582 Goal=   None    Shift=    1.000
 RMSDP=1.26D-08 MaxDP=1.45D-07 DE= 1.42D-14 OVMax= 3.00D-08

 Cycle  29  Pass 1  IDiag  1:
 E= -40.2034027315935     Delta-E=        0.000000000000 Rises=F Damp=F
 DIIS: error= 6.48D-09 at cycle  29 NSaved=  15.
 NSaved=15 IEnMin=13 EnMin= -40.2034027315936     IErMin=15 ErrMin= 6.48D-09
 ErrMax= 6.48D-09  0.00D+00 EMaxC= 1.00D-01 BMatC= 1.87D-15 BMatP= 4.90D-15
 IDIUse=1 WtCom= 1.00D+00 WtEn= 0.00D+00
 Large coefficients: NSaved= 15 BigCof=    0.00 CofMax=   10.00 Det=-4.53D-23
 Inversion failed.  Reducing to 14 matrices.
 Large coefficients: NSaved= 14 BigCof=    0.00 CofMax=   10.00 Det=-4.72D-23
 Inversion failed.  Reducing to 13 matrices.
 Large coefficients: NSaved= 13 BigCof=    0.00 CofMax=   10.00 Det=-4.91D-23
 Inversion failed.  Reducing to 12 matrices.
 Large coefficients: NSaved= 12 BigCof=    0.00 CofMax=   10.00 Det=-5.11D-23
 Inversion failed.  Reducing to 11 matrices.
 Large coefficients: NSaved= 11 BigCof=    0.00 CofMax=   10.00 Det=-9.17D-23
 Inversion failed.  Reducing to 10 matrices.
 Coeff-Com: -0.943D-02-0.955D-02 0.128D+00-0.231D+00 0.279D+00-0.403D+00
 Coeff-Com:  0.821D+00 0.701D+00-0.613D+01 0.585D+01
 Coeff:     -0.943D-02-0.955D-02 0.128D+00-0.231D+00 0.279D+00-0.403D+00
 Coeff:      0.821D+00 0.701D+00-0.613D+01 0.585D+01
 Gap=     0.582 Goal=   None    Shift=    1.000
 RMSDP=8.20D-09 MaxDP=9.37D-08 DE= 8.53D-14 OVMax= 1.86D-08

 Cycle  30  Pass 1  IDiag  1:
 E= -40.2034027315935     Delta-E=        0.000000000000 Rises=F Damp=F
 DIIS: error= 3.98D-09 at cycle  30 NSaved=  11.
 NSaved=11 IEnMin= 8 EnMin= -40.2034027315936     IErMin=11 ErrMin= 3.98D-09
 ErrMax= 3.98D-09  0.00D+00 EMaxC= 1.00D-01 BMatC= 7.13D-16 BMatP= 1.87D-15
 IDIUse=1 WtCom= 1.00D+00 WtEn= 0.00D+00
 Large coefficients: NSaved= 11 BigCof=    0.00 CofMax=   10.00 Det=-4.44D-23
 Inversion failed.  Reducing to 10 matrices.
 Large coefficients: NSaved= 10 BigCof=    0.00 CofMax=   10.00 Det=-7.28D-23
 Inversion failed.  Reducing to  9 matrices.
 Large coefficients: NSaved=  9 BigCof=    0.00 CofMax=   10.00 Det=-7.83D-23
 Inversion failed.  Reducing to  8 matrices.
 Large coefficients: NSaved=  8 BigCof=    0.00 CofMax=   10.00 Det=-8.52D-23
 Inversion failed.  Reducing to  7 matrices.
 Large coefficients: NSaved=  7 BigCof=   11.68 CofMax=   10.00 Det=-1.07D-22
 Inversion failed.  Reducing to  6 matrices.
 Large coefficients: NSaved=  6 BigCof=   11.60 CofMax=   10.00 Det=-1.07D-22
 Inversion failed.  Reducing to  5 matrices.
 Large coefficients: NSaved=  5 BigCof=   12.81 CofMax=   10.00 Det=-1.16D-22
 Inversion failed.  Reducing to  4 matrices.
 Large coefficients: NSaved=  4 BigCof=   13.31 CofMax=   10.00 Det=-1.18D-22
 Inversion failed.  Reducing to  3 matrices.
 Coeff-Com:  0.502D+00-0.426D+01 0.475D+01
 Coeff:      0.502D+00-0.426D+01 0.475D+01
 Gap=     0.582 Goal=   None    Shift=    1.000
 RMSDP=5.33D-09 MaxDP=6.03D-08 DE=-1.42D-14 OVMax= 1.15D-08

 Cycle  31  Pass 1  IDiag  1:
 E= -40.2034027315934     Delta-E=        0.000000000000 Rises=F Damp=F
 DIIS: error= 2.45D-09 at cycle  31 NSaved=   4.
 NSaved= 4 IEnMin= 1 EnMin= -40.2034027315936     IErMin= 4 ErrMin= 2.45D-09
 ErrMax= 2.45D-09  0.00D+00 EMaxC= 1.00D-01 BMatC= 2.73D-16 BMatP= 7.13D-16
 IDIUse=1 WtCom= 1.00D+00 WtEn= 0.00D+00
 Large coefficients: NSaved=  4 BigCof=    0.00 CofMax=   10.00 Det=-1.00D-22
 Inversion failed.  Reducing to  3 matrices.
 Coeff-Com:  0.175D+00-0.328D+01 0.411D+01
 Coeff:      0.175D+00-0.328D+01 0.411D+01
 Gap=     0.582 Goal=   None    Shift=    1.000
 RMSDP=3.45D-09 MaxDP=3.87D-08 DE= 8.53D-14 OVMax= 7.14D-09

 Cycle  32  Pass 1  IDiag  1:
 E= -40.2034027315937     Delta-E=        0.000000000000 Rises=F Damp=F
 DIIS: error= 1.51D-09 at cycle  32 NSaved=   4.
 NSaved= 4 IEnMin= 4 EnMin= -40.2034027315937     IErMin= 4 ErrMin= 1.51D-09
 ErrMax= 1.51D-09  0.00D+00 EMaxC= 1.00D-01 BMatC= 1.05D-16 BMatP= 2.73D-16
 IDIUse=1 WtCom= 1.00D+00 WtEn= 0.00D+00
 Large coefficients: NSaved=  4 BigCof=    0.00 CofMax=   10.00 Det=-6.58D-23
 Inversion failed.  Reducing to  3 matrices.
 Coeff-Com:  0.689D-01-0.275D+01 0.368D+01
 Coeff:      0.689D-01-0.275D+01 0.368D+01
 Gap=     0.582 Goal=   None    Shift=    1.000
 RMSDP=2.22D-09 MaxDP=2.47D-08 DE=-2.77D-13 OVMax= 4.43D-09

 Cycle  33  Pass 1  IDiag  1:
 E= -40.2034027315933     Delta-E=        0.000000000000 Rises=F Damp=F
 DIIS: error= 9.29D-10 at cycle  33 NSaved=   4.
 NSaved= 4 IEnMin= 3 EnMin= -40.2034027315937     IErMin= 4 ErrMin= 9.29D-10
 ErrMax= 9.29D-10  0.00D+00 EMaxC= 1.00D-01 BMatC= 4.02D-17 BMatP= 1.05D-16
 IDIUse=1 WtCom= 1.00D+00 WtEn= 0.00D+00
 Large coefficients: NSaved=  4 BigCof=    0.00 CofMax=   10.00 Det=-4.80D-23
 Inversion failed.  Reducing to  3 matrices.
 Coeff-Com:  0.311D-01-0.248D+01 0.345D+01
 Coeff:      0.311D-01-0.248D+01 0.345D+01
 Gap=     0.582 Goal=   None    Shift=    1.000
 RMSDP=1.43D-09 MaxDP=1.58D-08 DE= 3.34D-13 OVMax= 2.75D-09

 Cycle  34  Pass 1  IDiag  1:
 E= -40.2034027315935     Delta-E=        0.000000000000 Rises=F Damp=F
 DIIS: error= 5.74D-10 at cycle  34 NSaved=   4.
 NSaved= 4 IEnMin= 2 EnMin= -40.2034027315937     IErMin= 4 ErrMin= 5.74D-10
 ErrMax= 5.74D-10  0.00D+00 EMaxC= 1.00D-01 BMatC= 1.55D-17 BMatP= 4.02D-17
 IDIUse=1 WtCom= 1.00D+00 WtEn= 0.00D+00
 Large coefficients: NSaved=  4 BigCof=    0.00 CofMax=   10.00 Det=-2.43D-23
 Inversion failed.  Reducing to  3 matrices.
 Coeff-Com:  0.221D+01-0.742D+01 0.620D+01
 Coeff:      0.221D+01-0.742D+01 0.620D+01
 Gap=     0.582 Goal=   None    Shift=    1.000
 RMSDP=9.20D-10 MaxDP=1.01D-08 DE=-1.21D-13 OVMax= 1.71D-09

 Cycle  35  Pass 1  IDiag  1:
 E= -40.2034027315936     Delta-E=        0.000000000000 Rises=F Damp=F
 DIIS: error= 3.55D-10 at cycle  35 NSaved=   4.
 NSaved= 4 IEnMin= 1 EnMin= -40.2034027315937     IErMin= 4 ErrMin= 3.55D-10
 ErrMax= 3.55D-10  0.00D+00 EMaxC= 1.00D-01 BMatC= 5.97D-18 BMatP= 1.55D-17
 IDIUse=1 WtCom= 1.00D+00 WtEn= 0.00D+00
 Large coefficients: NSaved=  4 BigCof=    0.00 CofMax=   10.00 Det=-9.72D-24
 Inversion failed.  Reducing to  3 matrices.
 Coeff-Com:  0.451D+00-0.399D+01 0.454D+01
 Coeff:      0.451D+00-0.399D+01 0.454D+01
 Gap=     0.582 Goal=   None    Shift=    1.000
 RMSDP=5.84D-10 MaxDP=6.36D-09 DE=-1.28D-13 OVMax= 1.06D-09

 Cycle  36  Pass 1  IDiag  1:
 E= -40.2034027315934     Delta-E=        0.000000000000 Rises=F Damp=F
 DIIS: error= 2.20D-10 at cycle  36 NSaved=   4.
 NSaved= 4 IEnMin= 1 EnMin= -40.2034027315937     IErMin= 4 ErrMin= 2.20D-10
 ErrMax= 2.20D-10  0.00D+00 EMaxC= 1.00D-01 BMatC= 2.30D-18 BMatP= 5.97D-18
 IDIUse=1 WtCom= 1.00D+00 WtEn= 0.00D+00
 Large coefficients: NSaved=  4 BigCof=    0.00 CofMax=   10.00 Det=-7.22D-24
 Inversion failed.  Reducing to  3 matrices.
 Coeff-Com:  0.169D+00-0.323D+01 0.406D+01
 Coeff:      0.169D+00-0.323D+01 0.406D+01
 Gap=     0.582 Goal=   None    Shift=    1.000
 RMSDP=3.72D-10 MaxDP=4.04D-09 DE= 1.63D-13 OVMax= 6.61D-10

 Cycle  37  Pass 1  IDiag  1:
 E= -40.2034027315937     Delta-E=        0.000000000000 Rises=F Damp=F
 DIIS: error= 1.36D-10 at cycle  37 NSaved=   4.
 NSaved= 4 IEnMin= 4 EnMin= -40.2034027315937     IErMin= 4 ErrMin= 1.36D-10
 ErrMax= 1.36D-10  0.00D+00 EMaxC= 1.00D-01 BMatC= 8.89D-19 BMatP= 2.30D-18
 IDIUse=1 WtCom= 1.00D+00 WtEn= 0.00D+00
 Large coefficients: NSaved=  4 BigCof=    0.00 CofMax=   10.00 Det=-1.00D-23
 Inversion failed.  Reducing to  3 matrices.
 Coeff-Com:  0.785D-01-0.290D+01 0.383D+01
 Coeff:      0.785D-01-0.290D+01 0.383D+01
 Gap=     0.582 Goal=   None    Shift=    1.000
 RMSDP=2.38D-10 MaxDP=2.56D-09 DE=-2.56D-13 OVMax= 4.11D-10

 Cycle  38  Pass 1  IDiag  1:
 E= -40.2034027315934     Delta-E=        0.000000000000 Rises=F Damp=F
 DIIS: error= 8.46D-11 at cycle  38 NSaved=   4.
 NSaved= 4 IEnMin= 3 EnMin= -40.2034027315937     IErMin= 4 ErrMin= 8.46D-11
 ErrMax= 8.46D-11  0.00D+00 EMaxC= 1.00D-01 BMatC= 3.43D-19 BMatP= 8.89D-19
 IDIUse=1 WtCom= 1.00D+00 WtEn= 0.00D+00
 Large coefficients: NSaved=  4 BigCof=    0.00 CofMax=   10.00 Det=-5.60D-24
 Inversion failed.  Reducing to  3 matrices.
 Coeff-Com:  0.315D-01-0.249D+01 0.346D+01
 Coeff:      0.315D-01-0.249D+01 0.346D+01
 Gap=     0.582 Goal=   None    Shift=    1.000
 RMSDP=1.50D-10 MaxDP=1.62D-09 DE= 2.27D-13 OVMax= 2.56D-10

 Cycle  39  Pass 1  IDiag  1:
 E= -40.2034027315935     Delta-E=        0.000000000000 Rises=F Damp=F
 DIIS: error= 5.25D-11 at cycle  39 NSaved=   4.
 NSaved= 4 IEnMin= 2 EnMin= -40.2034027315937     IErMin= 4 ErrMin= 5.25D-11
 ErrMax= 5.25D-11  0.00D+00 EMaxC= 1.00D-01 BMatC= 1.33D-19 BMatP= 3.43D-19
 IDIUse=1 WtCom= 1.00D+00 WtEn= 0.00D+00
 Large coefficients: NSaved=  4 BigCof=    0.00 CofMax=   10.00 Det=-2.59D-24
 Inversion failed.  Reducing to  3 matrices.
 Large coefficients: NSaved=  3 BigCof=    0.00 CofMax=   10.00 Det=-6.44D-24
 Inversion failed.  Reducing to  2 matrices.
 Coeff-Com: -0.164D+01 0.264D+01
 Coeff:     -0.164D+01 0.264D+01
 Gap=     0.582 Goal=   None    Shift=    1.000
 RMSDP=9.56D-11 MaxDP=1.02D-09 DE=-9.95D-14 OVMax= 1.59D-10

 Cycle  40  Pass 1  IDiag  1:
 E= -40.2034027315935     Delta-E=        0.000000000000 Rises=F Damp=F
 DIIS: error= 3.28D-11 at cycle  40 NSaved=   3.
 NSaved= 3 IEnMin= 2 EnMin= -40.2034027315935     IErMin= 3 ErrMin= 3.28D-11
 ErrMax= 3.28D-11  0.00D+00 EMaxC= 1.00D-01 BMatC= 5.16D-20 BMatP= 1.33D-19
 IDIUse=1 WtCom= 1.00D+00 WtEn= 0.00D+00
 Large coefficients: NSaved=  3 BigCof=    0.00 CofMax=   10.00 Det=-6.14D-24
 Inversion failed.  Reducing to  2 matrices.
 Coeff-Com: -0.165D+01 0.265D+01
 Coeff:     -0.165D+01 0.265D+01
 Gap=     0.582 Goal=   None    Shift=    1.000
 RMSDP=5.98D-11 MaxDP=6.38D-10 DE= 4.26D-14 OVMax= 9.92D-11

 Cycle  41  Pass 1  IDiag  1:
 E= -40.2034027315936     Delta-E=        0.000000000000 Rises=F Damp=F
 DIIS: error= 2.03D-11 at cycle  41 NSaved=   3.
 NSaved= 3 IEnMin= 3 EnMin= -40.2034027315936     IErMin= 3 ErrMin= 2.03D-11
 ErrMax= 2.03D-11  0.00D+00 EMaxC= 1.00D-01 BMatC= 2.00D-20 BMatP= 5.16D-20
 IDIUse=1 WtCom= 1.00D+00 WtEn= 0.00D+00
 Large coefficients: NSaved=  3 BigCof=    0.00 CofMax=   10.00 Det=-2.26D-24
 Inversion failed.  Reducing to  2 matrices.
 Coeff-Com: -0.164D+01 0.264D+01
 Coeff:     -0.164D+01 0.264D+01
 Gap=     0.582 Goal=   None    Shift=    1.000
 RMSDP=3.80D-11 MaxDP=4.04D-10 DE=-9.95D-14 OVMax= 6.17D-11

 Cycle  42  Pass 1  IDiag  1:
 E= -40.2034027315935     Delta-E=        0.000000000000 Rises=F Damp=F
 DIIS: error= 1.27D-11 at cycle  42 NSaved=   3.
 NSaved= 3 IEnMin= 2 EnMin= -40.2034027315936     IErMin= 3 ErrMin= 1.27D-11
 ErrMax= 1.27D-11  0.00D+00 EMaxC= 1.00D-01 BMatC= 7.76D-21 BMatP= 2.00D-20
 IDIUse=1 WtCom= 1.00D+00 WtEn= 0.00D+00
 Large coefficients: NSaved=  3 BigCof=    0.00 CofMax=   10.00 Det=-1.95D-24
 Inversion failed.  Reducing to  2 matrices.
 Coeff-Com: -0.165D+01 0.265D+01
 Coeff:     -0.165D+01 0.265D+01
 Gap=     0.582 Goal=   None    Shift=    1.000
 RMSDP=2.33D-11 MaxDP=2.52D-10 DE= 9.95D-14 OVMax= 3.84D-11

 Cycle  43  Pass 1  IDiag  1:
 E= -40.2034027315935     Delta-E=        0.000000000000 Rises=F Damp=F
 DIIS: error= 7.90D-12 at cycle  43 NSaved=   3.
 NSaved= 3 IEnMin= 1 EnMin= -40.2034027315936     IErMin= 3 ErrMin= 7.90D-12
 ErrMax= 7.90D-12  0.00D+00 EMaxC= 1.00D-01 BMatC= 3.01D-21 BMatP= 7.76D-21
 IDIUse=1 WtCom= 1.00D+00 WtEn= 0.00D+00
 Large coefficients: NSaved=  3 BigCof=    0.00 CofMax=   10.00 Det=-1.58D-24
 Inversion failed.  Reducing to  2 matrices.
 Coeff-Com: -0.164D+01 0.264D+01
 Coeff:     -0.164D+01 0.264D+01
 Gap=     0.582 Goal=   None    Shift=    1.000
 DSYEVD-2 returned Info=          91 IAlg= 4 N=    60 NDim=    60 NE2=     6676611 trying  DSYEV.
 RMSDP=1.57D-11 MaxDP=1.65D-10 DE=-3.55D-14 OVMax= 2.40D-11

 Cycle  44  Pass 1  IDiag  1:
 E= -40.2034027315936     Delta-E=        0.000000000000 Rises=F Damp=F
 DIIS: error= 4.94D-12 at cycle  44 NSaved=   3.
 NSaved= 3 IEnMin= 3 EnMin= -40.2034027315936     IErMin= 3 ErrMin= 4.94D-12
 ErrMax= 4.94D-12  0.00D+00 EMaxC= 1.00D-01 BMatC= 1.18D-21 BMatP= 3.01D-21
 IDIUse=1 WtCom= 1.00D+00 WtEn= 0.00D+00
 Large coefficients: NSaved=  3 BigCof=    0.00 CofMax=   10.00 Det=-1.02D-24
 Inversion failed.  Reducing to  2 matrices.
 Coeff-Com: -0.166D+01 0.266D+01
 Coeff:     -0.166D+01 0.266D+01
 Gap=     0.582 Goal=   None    Shift=    1.000
 DSYEVD-2 returned Info=        1951 IAlg= 4 N=    60 NDim=    60 NE2=     6676611 trying  DSYEV.
 RMSDP=1.07D-11 MaxDP=1.16D-10 DE=-4.97D-14 OVMax= 1.50D-11

 Cycle  45  Pass 1  IDiag  1:
 E= -40.2034027315935     Delta-E=        0.000000000000 Rises=F Damp=F
 DIIS: error= 3.07D-12 at cycle  45 NSaved=   3.
 NSaved= 3 IEnMin= 2 EnMin= -40.2034027315936     IErMin= 3 ErrMin= 3.07D-12
 ErrMax= 3.07D-12  0.00D+00 EMaxC= 1.00D-01 BMatC= 4.50D-22 BMatP= 1.18D-21
 IDIUse=1 WtCom= 1.00D+00 WtEn= 0.00D+00
 Large coefficients: NSaved=  3 BigCof=    0.00 CofMax=   10.00 Det=-1.88D-24
 Inversion failed.  Reducing to  2 matrices.
 Coeff-Com: -0.159D+01 0.259D+01
 Coeff:     -0.159D+01 0.259D+01
 Gap=     0.582 Goal=   None    Shift=    1.000
 RMSDP=5.41D-12 MaxDP=6.13D-11 DE= 5.68D-14 OVMax= 9.19D-12

 SCF Done:  E(RHF) =    -40.20340273159353000000 A.U. after   45 cycles
            NFock= 45  Conv=0.54D-11     -V/T= 2.0034
 KE= 4.006750958408D+01 PE=-1.197551866755D+02 EE= 2.604926492104D+01
 Leave Link  502 at Thu Aug 17 20:50:56 2017, MaxMem=   402653184 cpu:         2.0
 (Enter /home/acad/unamur-ucpts/pbeaujea/gaussian/g09/l801.exe)
 Range of M.O.s used for correlation:     1    60
 NBasis=    60 NAE=     5 NBE=     5 NFC=     0 NFV=     0
 NROrb=     60 NOA=     5 NOB=     5 NVA=    55 NVB=    55

 **** Warning!!: The largest alpha MO coefficient is  0.15900995D+02

 Leave Link  801 at Thu Aug 17 20:50:56 2017, MaxMem=   402653184 cpu:         0.1
 (Enter /home/acad/unamur-ucpts/pbeaujea/gaussian/g09/l1002.exe)
 Minotr:  Closed shell wavefunction.
          Direct CPHF calculation.
          Differentiating once with respect to electric field.
                with respect to dipole field.
          Electric field/nuclear overlap derivatives assumed to be zero.
          Requested convergence is 1.0D-08 RMS, and 1.0D-07 maximum.
          Secondary convergence is 1.0D-12 RMS, and 1.0D-12 maximum.
          NewPWx=F KeepS1=T KeepF1=T KeepIn=T MapXYZ=F SortEE=F KeepMc=T.
          MDV=     402653080 using IRadAn=       2.
 Keep R1 ints in memory in canonical form, NReq=2542146.
 FoFCou: FMM=F IPFlag=           0 FMFlag=           0 FMFlg1=           0
         NFxFlg=           0 DoJE=F BraDBF=F KetDBF=F FulRan=T
         wScrn=  0.000000 ICntrl=     600 IOpCl=  0 I1Cent=           0 NGrid=           0
         NMat0=    1 NMatS0=   1830 NMatT0=    0 NMatD0=    1 NMtDS0=    0 NMtDT0=    0
 Symmetry not used in FoFCou.
          Solving linear equations simultaneously, MaxMat=       0.
          There are     3 degrees of freedom in the 1st order CPHF.  IDoFFX=0 NUNeed=     3.
      3 vectors produced by pass  0 Test12= 9.17D-15 3.33D-08 XBig12= 3.83D+00 7.59D-01.
 AX will form     3 AO Fock derivatives at one time.
      3 vectors produced by pass  1 Test12= 9.17D-15 3.33D-08 XBig12= 1.17D-01 1.25D-01.
      3 vectors produced by pass  2 Test12= 9.17D-15 3.33D-08 XBig12= 1.34D-03 1.14D-02.
      3 vectors produced by pass  3 Test12= 9.17D-15 3.33D-08 XBig12= 1.33D-05 1.31D-03.
      3 vectors produced by pass  4 Test12= 9.17D-15 3.33D-08 XBig12= 7.66D-08 9.20D-05.
      3 vectors produced by pass  5 Test12= 9.17D-15 3.33D-08 XBig12= 9.44D-10 8.39D-06.
      3 vectors produced by pass  6 Test12= 9.17D-15 3.33D-08 XBig12= 3.41D-12 8.44D-07.
      3 vectors produced by pass  7 Test12= 9.17D-15 3.33D-08 XBig12= 1.83D-14 5.18D-08.
 InvSVY:  IOpt=1 It=  1 EMax= 2.22D-16
 Solved reduced A of dimension    24 with     3 vectors.
 End of Minotr F.D. properties file   721 does not exist.
 End of Minotr F.D. properties file   722 does not exist.
 End of Minotr F.D. properties file   788 does not exist.
 Leave Link 1002 at Thu Aug 17 20:50:56 2017, MaxMem=   402653184 cpu:         0.8
 (Enter /home/acad/unamur-ucpts/pbeaujea/gaussian/g09/l1101.exe)
 Using compressed storage, NAtomX=     5.
 Will process      6 centers per pass.
 Leave Link 1101 at Thu Aug 17 20:50:56 2017, MaxMem=   402653184 cpu:         0.5
 (Enter /home/acad/unamur-ucpts/pbeaujea/gaussian/g09/l1102.exe)
 Symmetrizing basis deriv contribution to polar:
 IMax=3 JMax=2 DiffMx= 0.00D+00
 Leave Link 1102 at Thu Aug 17 20:50:56 2017, MaxMem=   402653184 cpu:         0.1
 (Enter /home/acad/unamur-ucpts/pbeaujea/gaussian/g09/l1110.exe)
 Forming Gx(P) for the SCF density, NAtomX=     5.
 Integral derivatives from FoFJK, PRISM(SPDF).
 Do as many integral derivatives as possible in FoFJK.
 G2DrvN: MDV=     402653040.
 G2DrvN: will do     6 centers at a time, making    1 passes.
 PxScal for G2LodP:  IOpCl= 0 ISclPx=1 IMOff=     1 NMtTot=     4 NTT=    1830 ScalPx= 1.94D+00
 Calling FoFCou, ICntrl=  3107 FMM=F I1Cent=   0 AccDes= 0.00D+00.
 FoFJK:  IHMeth= 1 ICntrl=    3107 DoSepK=F KAlg= 0 I1Cent=   0 FoldK=F
 IRaf=         0 NMat=   1 IRICut=       1 DoRegI=T DoRafI=F ISym2E= 0.
 FoFCou: FMM=F IPFlag=           0 FMFlag=      100000 FMFlg1=           0
         NFxFlg=           0 DoJE=F BraDBF=F KetDBF=F FulRan=T
         wScrn=  0.000000 ICntrl=    3107 IOpCl=  0 I1Cent=           0 NGrid=           0
         NMat0=    1 NMatS0=      1 NMatT0=    0 NMatD0=    4 NMtDS0=    3 NMtDT0=    0
 Symmetry not used in FoFCou.
 End of G2Drv F.D. properties file   721 does not exist.
 End of G2Drv F.D. properties file   722 does not exist.
 End of G2Drv F.D. properties file   788 does not exist.
 Leave Link 1110 at Thu Aug 17 20:50:57 2017, MaxMem=   402653184 cpu:         1.7
 (Enter /home/acad/unamur-ucpts/pbeaujea/gaussian/g09/l1002.exe)
 Minotr:  Closed shell wavefunction.
          IDoAtm=11111
          Direct CPHF calculation.
          Differentiating once with respect to electric field.
                with respect to dipole field.
          Differentiating once with respect to nuclear coordinates.
          Requested convergence is 1.0D-08 RMS, and 1.0D-07 maximum.
          Secondary convergence is 1.0D-12 RMS, and 1.0D-12 maximum.
          NewPWx=T KeepS1=F KeepF1=F KeepIn=T MapXYZ=F SortEE=F KeepMc=T.
          MDV=     402653070 using IRadAn=       2.
 Keep R1 ints in memory in canonical form, NReq=2542261.
 FoFCou: FMM=F IPFlag=           0 FMFlag=           0 FMFlg1=           0
         NFxFlg=           0 DoJE=F BraDBF=F KetDBF=F FulRan=T
         wScrn=  0.000000 ICntrl=     600 IOpCl=  0 I1Cent=           0 NGrid=           0
         NMat0=    1 NMatS0=   1830 NMatT0=    0 NMatD0=    1 NMtDS0=    0 NMtDT0=    0
 Symmetry not used in FoFCou.
          Solving linear equations simultaneously, MaxMat=       0.
          There are    18 degrees of freedom in the 1st order CPHF.  IDoFFX=5 NUNeed=    18.
 Will reuse    3 saved solutions.
     12 vectors produced by pass  0 Test12= 1.53D-15 5.56D-09 XBig12= 7.56D-02 9.67D-02.
 AX will form    12 AO Fock derivatives at one time.
     12 vectors produced by pass  1 Test12= 1.53D-15 5.56D-09 XBig12= 1.84D-03 1.68D-02.
     12 vectors produced by pass  2 Test12= 1.53D-15 5.56D-09 XBig12= 3.96D-05 2.05D-03.
     12 vectors produced by pass  3 Test12= 1.53D-15 5.56D-09 XBig12= 3.73D-07 2.08D-04.
     12 vectors produced by pass  4 Test12= 1.53D-15 5.56D-09 XBig12= 1.84D-09 1.91D-05.
     12 vectors produced by pass  5 Test12= 1.53D-15 5.56D-09 XBig12= 9.75D-12 1.19D-06.
      7 vectors produced by pass  6 Test12= 1.53D-15 5.56D-09 XBig12= 3.46D-14 6.33D-08.
 InvSVY:  IOpt=1 It=  1 EMax= 4.44D-16
 Solved reduced A of dimension    79 with    12 vectors.
 FullF1:  Do perturbations    1 to     3.
 Isotropic polarizability for W=    0.000000       16.00 Bohr**3.
 FullF1:  Do perturbations    1 to     6.
 End of Minotr F.D. properties file   721 does not exist.
 End of Minotr F.D. properties file   722 does not exist.
 End of Minotr F.D. properties file   788 does not exist.
 Leave Link 1002 at Thu Aug 17 20:50:57 2017, MaxMem=   402653184 cpu:         1.2
 (Enter /home/acad/unamur-ucpts/pbeaujea/gaussian/g09/l601.exe)
 Copying SCF densities to generalized density rwf, IOpCl= 0 IROHF=0.

 **********************************************************************

            Population analysis using the SCF density.

 **********************************************************************

 Alpha  occ. eigenvalues --  -11.21956  -0.94347  -0.54385  -0.54385  -0.54385
 Alpha virt. eigenvalues --    0.03799   0.05969   0.05969   0.05969   0.12005
 Alpha virt. eigenvalues --    0.12005   0.12168   0.12168   0.12168   0.17175
 Alpha virt. eigenvalues --    0.19941   0.19941   0.19941   0.31004   0.31004
 Alpha virt. eigenvalues --    0.31004   0.33653   0.33653   0.35595   0.39601
 Alpha virt. eigenvalues --    0.39601   0.39601   0.42641   0.42641   0.42641
 Alpha virt. eigenvalues --    0.47920   0.47920   0.47920   0.49868   0.81556
 Alpha virt. eigenvalues --    0.81556   0.81556   0.92784   0.98009   0.98009
 Alpha virt. eigenvalues --    0.99919   0.99919   0.99919   1.31611   1.31611
 Alpha virt. eigenvalues --    1.31611   1.54115   1.54115   1.54115   1.54580
 Alpha virt. eigenvalues --    1.79619   1.79619   1.79619   2.20890   2.27047
 Alpha virt. eigenvalues --    2.27047   2.67851   2.67851   2.67851  22.96184
          Condensed to atoms (all electrons):
               1          2          3          4          5
     1  C    3.657376  -0.056582  -0.056582  -0.056582  -0.056582
     2  H   -0.056582   2.964723  -0.421968  -0.421968  -0.421968
     3  H   -0.056582  -0.421968   2.964723  -0.421968  -0.421968
     4  H   -0.056582  -0.421968  -0.421968   2.964723  -0.421968
     5  H   -0.056582  -0.421968  -0.421968  -0.421968   2.964723
 Mulliken charges:
               1
     1  C    2.568954
     2  H   -0.642238
     3  H   -0.642238
     4  H   -0.642238
     5  H   -0.642238
 Sum of Mulliken charges =   0.00000
 Mulliken charges with hydrogens summed into heavy atoms:
               1
     1  C    0.000000
 APT charges:
               1
     1  C    0.063975
     2  H   -0.015994
     3  H   -0.015994
     4  H   -0.015994
     5  H   -0.015994
 Sum of APT charges =   0.00000
 APT charges with hydrogens summed into heavy atoms:
               1
     1  C    0.000000
 Electronic spatial extent (au):  <R**2>=             35.7614
 Charge=              0.0000 electrons
 Dipole moment (field-independent basis, Debye):
    X=              0.0000    Y=              0.0000    Z=              0.0000  Tot=              0.0000
 Quadrupole moment (field-independent basis, Debye-Ang):
   XX=             -8.4241   YY=             -8.4241   ZZ=             -8.4241
   XY=              0.0000   XZ=              0.0000   YZ=              0.0000
 Traceless Quadrupole moment (field-independent basis, Debye-Ang):
   XX=              0.0000   YY=              0.0000   ZZ=              0.0000
   XY=              0.0000   XZ=              0.0000   YZ=              0.0000
 Octapole moment (field-independent basis, Debye-Ang**2):
  XXX=              0.0000  YYY=              0.0000  ZZZ=              0.0000  XYY=              0.0000
  XXY=              0.0000  XXZ=              0.0000  XZZ=              0.0000  YZZ=              0.0000
  YYZ=              0.0000  XYZ=              0.6140
 Hexadecapole moment (field-independent basis, Debye-Ang**3):
 XXXX=            -17.2733 YYYY=            -17.2733 ZZZZ=            -17.2733 XXXY=              0.0000
 XXXZ=              0.0000 YYYX=              0.0000 YYYZ=              0.0000 ZZZX=              0.0000
 ZZZY=              0.0000 XXYY=             -5.2520 XXZZ=             -5.2520 YYZZ=             -5.2520
 XXYZ=              0.0000 YYXZ=              0.0000 ZZXY=              0.0000
 N-N= 1.343500943881D+01 E-N=-1.197551866755D+02  KE= 4.006750958408D+01
  Exact polarizability:  15.997   0.000  15.997   0.000   0.000  15.997
 Approx polarizability:  13.283   0.000  13.283   0.000   0.000  13.283
 No NMR shielding tensors so no spin-rotation constants.
 Leave Link  601 at Thu Aug 17 20:50:57 2017, MaxMem=   402653184 cpu:         0.5
 (Enter /home/acad/unamur-ucpts/pbeaujea/gaussian/g09/l701.exe)
 Compute integral second derivatives.
 ... and contract with generalized density number  0.
 Leave Link  701 at Thu Aug 17 20:50:57 2017, MaxMem=   402653184 cpu:         0.6
 (Enter /home/acad/unamur-ucpts/pbeaujea/gaussian/g09/l702.exe)
 L702 exits ... SP integral derivatives will be done elsewhere.
 Leave Link  702 at Thu Aug 17 20:50:57 2017, MaxMem=   402653184 cpu:         0.1
 (Enter /home/acad/unamur-ucpts/pbeaujea/gaussian/g09/l703.exe)
 Compute integral second derivatives, UseDBF=F ICtDFT=           0.
 Integral derivatives from FoFJK, PRISM(SPDF).
 Calling FoFJK, ICntrl=    100127 FMM=F ISym2X=0 I1Cent= 0 IOpClX= 0 NMat=1 NMatS=1 NMatT=0.
 FoFJK:  IHMeth= 1 ICntrl=  100127 DoSepK=F KAlg= 0 I1Cent=   0 FoldK=F
 IRaf=         0 NMat=   1 IRICut=       1 DoRegI=T DoRafI=F ISym2E= 0.
 FoFCou: FMM=F IPFlag=           0 FMFlag=      100000 FMFlg1=         800
         NFxFlg=           0 DoJE=F BraDBF=F KetDBF=F FulRan=T
         wScrn=  0.000000 ICntrl=  100127 IOpCl=  0 I1Cent=           0 NGrid=           0
         NMat0=    1 NMatS0=      1 NMatT0=    0 NMatD0=    1 NMtDS0=    0 NMtDT0=    0
 Symmetry not used in FoFCou.
 Leave Link  703 at Thu Aug 17 20:50:58 2017, MaxMem=   402653184 cpu:         3.0
 (Enter /home/acad/unamur-ucpts/pbeaujea/gaussian/g09/l716.exe)
 Dipole        = 1.34106268D-13 8.04720873D-14-6.04494557D-10
 Polarizability= 1.59967862D+01 5.74223668D-08 1.59967862D+01
                 3.93120298D-13-6.38133169D-13 1.59967862D+01
 HyperPolar    = 4.52599624D-11 1.74610881D-11 1.82701076D-13
                 2.41395029D-11 1.54405075D-07 1.17588099D+01
                 1.54401778D-07 1.60627622D-11 1.66036768D-11
                 2.06814196D-07
 Full mass-weighted force constant matrix:
 Low frequencies ---   -0.0004    0.0000    0.0005   10.7105   10.7139   10.7183
 Low frequencies --- 1430.5306 1430.5306 1430.5307
 Diagonal vibrational polarizability:
        0.1960063       0.1960063       0.1960063
 Diagonal vibrational hyperpolarizability:
       -0.0000001       0.0000006      -0.0000002
 Harmonic frequencies (cm**-1), IR intensities (KM/Mole), Raman scattering
 activities (A**4/AMU), depolarization ratios for plane and unpolarized
 incident light, reduced masses (AMU), force constants (mDyne/A),
 and normal coordinates:
                      1                      2                      3
                      A                      A                      A
 Frequencies --   1430.5306              1430.5306              1430.5307
 Red. masses --      1.1793                 1.1793                 1.1793
 Frc consts  --      1.4219                 1.4219                 1.4219
 IR Inten    --      8.6194                 8.6194                 8.6194
 Raman Activ --      0.0354                 0.0354                 0.0354
 Depolar (P) --      0.7500                 0.7500                 0.7500
 Depolar (U) --      0.8571                 0.8571                 0.8571
  Atom  AN      X      Y      Z        X      Y      Z        X      Y      Z
     1   6     0.06   0.11  -0.03     0.08  -0.02   0.09     0.08  -0.06  -0.08
     2   1    -0.42  -0.38  -0.02    -0.03  -0.27  -0.10    -0.27   0.18   0.49
     3   1     0.08  -0.17  -0.23    -0.45   0.03  -0.39    -0.20   0.47   0.20
     4   1    -0.01  -0.27   0.38    -0.10   0.38  -0.17    -0.49   0.18   0.27
     5   1    -0.32  -0.48   0.18    -0.38   0.08  -0.46     0.02  -0.11  -0.02
                      4                      5                      6
                      A                      A                      A
 Frequencies --   1657.1313              1657.1313              3147.6159
 Red. masses --      1.0078                 1.0078                 1.0078
 Frc consts  --      1.6306                 1.6306                 5.8830
 IR Inten    --      0.0000                 0.0000                 0.0000
 Raman Activ --      4.3279                 4.3279               236.2517
 Depolar (P) --      0.7500                 0.7500                 0.0000
 Depolar (U) --      0.8571                 0.8571                 0.0000
  Atom  AN      X      Y      Z        X      Y      Z        X      Y      Z
     1   6     0.00   0.00   0.00     0.00   0.00   0.00     0.00   0.00   0.00
     2   1    -0.25   0.16   0.40     0.32   0.38   0.05     0.29  -0.29   0.29
     3   1    -0.25  -0.16  -0.40     0.32  -0.38  -0.05     0.29   0.29  -0.29
     4   1     0.25   0.16  -0.40    -0.32   0.38  -0.05    -0.29  -0.29  -0.29
     5   1     0.25  -0.16   0.40    -0.32  -0.38   0.05    -0.29   0.29   0.29
                      7                      8                      9
                      A                      A                      A
 Frequencies --   3271.5225              3271.5226              3271.5226
 Red. masses --      1.1014                 1.1014                 1.1014
 Frc consts  --      6.9454                 6.9454                 6.9454
 IR Inten    --     32.8736                32.8736                32.8736
 Raman Activ --     51.0612                51.0612                51.0612
 Depolar (P) --      0.7500                 0.7500                 0.7500
 Depolar (U) --      0.8571                 0.8571                 0.8571
  Atom  AN      X      Y      Z        X      Y      Z        X      Y      Z
     1   6     0.07   0.07   0.00     0.00   0.00   0.09    -0.07   0.07   0.00
     2   1     0.01   0.01   0.00    -0.29   0.29  -0.28     0.40  -0.40   0.41
     3   1    -0.40  -0.40   0.42     0.29   0.29  -0.27    -0.01   0.01   0.00
     4   1    -0.40  -0.40  -0.42    -0.29  -0.29  -0.27    -0.01   0.01   0.00
     5   1     0.01   0.01   0.00     0.29  -0.29  -0.27     0.40  -0.40  -0.42

 -------------------
 - Thermochemistry -
 -------------------
 Temperature   298.150 Kelvin.  Pressure   1.00000 Atm.
 Atom     1 has atomic number  6 and mass  12.00000
 Atom     2 has atomic number  1 and mass   1.00783
 Atom     3 has atomic number  1 and mass   1.00783
 Atom     4 has atomic number  1 and mass   1.00783
 Atom     5 has atomic number  1 and mass   1.00783
 Molecular mass:    16.03130 amu.
 Principal axes and moments of inertia in atomic units:
                           1         2         3
     Eigenvalues --    11.40326  11.40326  11.40326
           X            0.00000   0.00000   1.00000
           Y            0.00000   1.00000   0.00000
           Z            1.00000   0.00000   0.00000
 This molecule is a spherical top.
 Rotational symmetry number 12.
 Rotational temperatures (Kelvin)      7.59553     7.59553     7.59553
 Rotational constants (GHZ):         158.26533   158.26532   158.26532
 Zero-point vibrational energy     123024.2 (Joules/Mol)
                                   29.40349 (Kcal/Mol)
 Vibrational temperatures:   2058.21  2058.21  2058.21  2384.24  2384.24
          (Kelvin)           4528.71  4706.99  4706.99  4706.99
 
 Zero-point correction=                           0.046857 (Hartree/Particle)
 Thermal correction to Energy=                    0.049715
 Thermal correction to Enthalpy=                  0.050659
 Thermal correction to Gibbs Free Energy=         0.029544
 Sum of electronic and zero-point Energies=            -40.156545
 Sum of electronic and thermal Energies=               -40.153688
 Sum of electronic and thermal Enthalpies=             -40.152744
 Sum of electronic and thermal Free Energies=          -40.173859
 
                     E (Thermal)             CV                S
                      KCal/Mol        Cal/Mol-Kelvin    Cal/Mol-Kelvin
 Total                   31.196              6.333             44.441
 Electronic               0.000              0.000              0.000
 Translational            0.889              2.981             34.261
 Rotational               0.889              2.981             10.120
 Vibrational             29.419              0.372              0.059
                       Q            Log10(Q)             Ln(Q)
 Total Bot       0.257537D-13        -13.589160        -31.290198
 Total V=0       0.919855D+08          7.963719         18.337141
 Vib (Bot)       0.281011D-21        -21.551277        -49.623650
 Vib (V=0)       0.100370D+01          0.001602          0.003689
 Electronic      0.100000D+01          0.000000          0.000000
 Translational   0.252295D+07          6.401908         14.740939
 Rotational      0.363253D+02          1.560209          3.592514
 
                                                               no-field
                                                             IR Spectrum
 
      3   3                                                         1        1                                                       
      2   1                                                         6        4                                                       
      7   4                                                         5        3                                                       
      2   8                                                         7        1                                                       
 
      X                                                                      X                                                       
      X                                                                      X                                                       
      X                                                                      X                                                       
      X                                                                      X                                                       
      X                                                                      X                                                       
      X                                                                                                                              
      X                                                                                                                              
      X                                                                                                                              
      X                                                                                                                              
      X                                                                                                                              
      X                                                                                                                              
      X                                                                                                                              
      X                                                                                                                              
      X                                                                                                                              
      X                                                                                                                              
      X                                                                                                                              
      X                                                                                                                              
      X                                                                                                                              
      X                                                                                                                              
      X                                                                                                                              
 
 
                                                               no-field
                                                            Raman Spectrum
 
      3   3                                                         1        1                                                       
      2   1                                                         6        4                                                       
      7   4                                                         5        3                                                       
      2   8                                                         7        1                                                       
 
      X   X                                                         X        X                                                       
      X   X                                                                                                                          
      X   X                                                                                                                          
      X   X                                                                                                                          
      X   X                                                                                                                          
      X   X                                                                                                                          
      X   X                                                                                                                          
      X   X                                                                                                                          
      X   X                                                                                                                          
      X   X                                                                                                                          
      X   X                                                                                                                          
      X   X                                                                                                                          
      X   X                                                                                                                          
          X                                                                                                                          
          X                                                                                                                          
          X                                                                                                                          
          X                                                                                                                          
          X                                                                                                                          
          X                                                                                                                          
          X                                                                                                                          
 
 -------------------------------------------------------------------
 Center     Atomic                   Forces (Hartrees/Bohr)
 Number     Number              X              Y              Z
 -------------------------------------------------------------------
      1        6           0.000000000    0.000000000    0.000000006
      2        1           0.000005212   -0.000005212    0.000005212
      3        1           0.000005214    0.000005214   -0.000005215
      4        1          -0.000005214   -0.000005214   -0.000005215
      5        1          -0.000005212    0.000005212    0.000005212
 -------------------------------------------------------------------
 Cartesian Forces:  Max     0.000005215 RMS     0.000004663
 Z-matrix is all fixed cartesians, so copy forces.
 Force constants in Cartesian coordinates: 
                1             2             3             4             5 
      1  0.598333D+00
      2  0.000000D+00  0.598333D+00
      3  0.000000D+00  0.000000D+00  0.598333D+00
      4 -0.149583D+00  0.974550D-01 -0.974550D-01  0.157946D+00
      5  0.974550D-01 -0.149583D+00  0.974550D-01 -0.107290D+00  0.157946D+00
      6 -0.974550D-01  0.974550D-01 -0.149583D+00  0.107290D+00 -0.107290D+00
      7 -0.149583D+00 -0.974550D-01  0.974550D-01  0.147349D-01  0.130406D-01
      8 -0.974550D-01 -0.149583D+00  0.974550D-01 -0.130406D-01 -0.115489D-01
      9  0.974550D-01  0.974550D-01 -0.149583D+00  0.130406D-01  0.983534D-02
     10 -0.149583D+00 -0.974550D-01 -0.974550D-01 -0.115490D-01 -0.130406D-01
     11 -0.974550D-01 -0.149583D+00 -0.974550D-01  0.130406D-01  0.147349D-01
     12 -0.974550D-01 -0.974550D-01 -0.149583D+00 -0.983534D-02 -0.130406D-01
     13 -0.149583D+00  0.974550D-01  0.974550D-01 -0.115490D-01  0.983534D-02
     14  0.974550D-01 -0.149583D+00 -0.974550D-01  0.983534D-02 -0.115490D-01
     15  0.974550D-01 -0.974550D-01 -0.149583D+00 -0.130406D-01  0.130406D-01
                6             7             8             9            10 
      6  0.157946D+00
      7 -0.130406D-01  0.157946D+00
      8  0.983534D-02  0.107290D+00  0.157946D+00
      9 -0.115490D-01 -0.107290D+00 -0.107290D+00  0.157946D+00
     10 -0.983534D-02 -0.115490D-01 -0.983534D-02 -0.130406D-01  0.157946D+00
     11  0.130406D-01 -0.983534D-02 -0.115490D-01 -0.130406D-01  0.107290D+00
     12 -0.115490D-01  0.130406D-01  0.130406D-01  0.147349D-01  0.107290D+00
     13  0.130406D-01 -0.115489D-01  0.130406D-01  0.983534D-02  0.147349D-01
     14 -0.130406D-01 -0.130406D-01  0.147349D-01  0.130406D-01  0.130406D-01
     15  0.147349D-01  0.983534D-02 -0.130406D-01 -0.115490D-01  0.130406D-01
               11            12            13            14            15 
     11  0.157946D+00
     12  0.107290D+00  0.157946D+00
     13 -0.130406D-01 -0.130406D-01  0.157946D+00
     14 -0.115490D-01 -0.983534D-02 -0.107290D+00  0.157946D+00
     15 -0.983534D-02 -0.115489D-01 -0.107290D+00  0.107290D+00  0.157946D+00
 Leave Link  716 at Thu Aug 17 20:50:58 2017, MaxMem=   402653184 cpu:         0.1
 (Enter /home/acad/unamur-ucpts/pbeaujea/gaussian/g09/l103.exe)

 GradGradGradGradGradGradGradGradGradGradGradGradGradGradGradGradGradGrad
 Berny optimization.
 Search for a local minimum.
 Step number   1 out of a maximum of    2
 All quantities printed in internal units (Hartrees-Bohrs-Radians)
 Second derivative matrix not updated -- analytic derivatives used.
 The second derivative matrix:
                          X1        Y1        Z1        X2        Y2
           X1           0.59833
           Y1           0.00000   0.59833
           Z1           0.00000   0.00000   0.59833
           X2          -0.14958   0.09746  -0.09746   0.15795
           Y2           0.09746  -0.14958   0.09746  -0.10729   0.15795
           Z2          -0.09746   0.09746  -0.14958   0.10729  -0.10729
           X3          -0.14958  -0.09746   0.09746   0.01473   0.01304
           Y3          -0.09746  -0.14958   0.09746  -0.01304  -0.01155
           Z3           0.09746   0.09746  -0.14958   0.01304   0.00984
           X4          -0.14958  -0.09746  -0.09746  -0.01155  -0.01304
           Y4          -0.09746  -0.14958  -0.09746   0.01304   0.01473
           Z4          -0.09746  -0.09746  -0.14958  -0.00984  -0.01304
           X5          -0.14958   0.09746   0.09746  -0.01155   0.00984
           Y5           0.09746  -0.14958  -0.09746   0.00984  -0.01155
           Z5           0.09746  -0.09746  -0.14958  -0.01304   0.01304
                          Z2        X3        Y3        Z3        X4
           Z2           0.15795
           X3          -0.01304   0.15795
           Y3           0.00984   0.10729   0.15795
           Z3          -0.01155  -0.10729  -0.10729   0.15795
           X4          -0.00984  -0.01155  -0.00984  -0.01304   0.15795
           Y4           0.01304  -0.00984  -0.01155  -0.01304   0.10729
           Z4          -0.01155   0.01304   0.01304   0.01473   0.10729
           X5           0.01304  -0.01155   0.01304   0.00984   0.01473
           Y5          -0.01304  -0.01304   0.01473   0.01304   0.01304
           Z5           0.01473   0.00984  -0.01304  -0.01155   0.01304
                          Y4        Z4        X5        Y5        Z5
           Y4           0.15795
           Z4           0.10729   0.15795
           X5          -0.01304  -0.01304   0.15795
           Y5          -0.01155  -0.00984  -0.10729   0.15795
           Z5          -0.00984  -0.01155  -0.10729   0.10729   0.15795
 ITU=  0
     Eigenvalues ---    0.10473   0.10473   0.12690   0.12690   0.12690
     Eigenvalues ---    0.37787   0.78173   0.78173   0.78173
 Angle between quadratic step and forces=   0.02 degrees.
 Linear search not attempted -- first point.
 TrRot=  0.000000  0.000000  0.000000  0.000000  0.000000  0.000000
 Variable       Old X    -DE/DX   Delta X   Delta X   Delta X     New X
                                 (Linear)    (Quad)   (Total)
    X1        0.00000   0.00000   0.00000   0.00000   0.00000   0.00000
    Y1        0.00000   0.00000   0.00000   0.00000   0.00000   0.00000
    Z1        0.00000   0.00000   0.00000   0.00000   0.00000   0.00000
    X2       -1.18926   0.00001   0.00000   0.00001   0.00001  -1.18925
    Y2        1.18926  -0.00001   0.00000  -0.00001  -0.00001   1.18925
    Z2       -1.18926   0.00001   0.00000   0.00001   0.00001  -1.18925
    X3       -1.18926   0.00001   0.00000   0.00001   0.00001  -1.18925
    Y3       -1.18926   0.00001   0.00000   0.00001   0.00001  -1.18925
    Z3        1.18926  -0.00001   0.00000  -0.00001  -0.00001   1.18925
    X4        1.18926  -0.00001   0.00000  -0.00001  -0.00001   1.18925
    Y4        1.18926  -0.00001   0.00000  -0.00001  -0.00001   1.18925
    Z4        1.18926  -0.00001   0.00000  -0.00001  -0.00001   1.18925
    X5        1.18926  -0.00001   0.00000  -0.00001  -0.00001   1.18925
    Y5       -1.18926   0.00001   0.00000   0.00001   0.00001  -1.18925
    Z5       -1.18926   0.00001   0.00000   0.00001   0.00001  -1.18925
         Item               Value     Threshold  Converged?
 Maximum Force            0.000005     0.000450     YES
 RMS     Force            0.000005     0.000300     YES
 Maximum Displacement     0.000014     0.001800     YES
 RMS     Displacement     0.000012     0.001200     YES
 Predicted change in Energy=-4.315005D-10
 Optimization completed.
    -- Stationary point found.
 GradGradGradGradGradGradGradGradGradGradGradGradGradGradGradGradGradGrad

 Leave Link  103 at Thu Aug 17 20:50:58 2017, MaxMem=   402653184 cpu:         0.0
 (Enter /home/acad/unamur-ucpts/pbeaujea/gaussian/g09/l9999.exe)

 Test job not archived.
 1\1\GINC-NODE0852\Freq\RHF\Gen\C1H4\PBEAUJEA\17-Aug-2017\0\\#p HF gen 
 nosym scf=(Conver=11,NoVarAcc,MaxCyc=600,vshift=1000) IOP(9/6=600,9/9=
 11) freq\\no-field\\0,1\C,0.,0.,0.\H,-0.62932958,0.62932958,-0.6293295
 8\H,-0.62932958,-0.62932958,0.62932959\H,0.62932958,0.62932958,0.62932
 959\H,0.62932958,-0.62932958,-0.62932958\\Version=AM64L-G09RevD.01\HF=
 -40.2034027\RMSD=5.406e-12\RMSF=4.663e-06\ZeroPoint=0.0468574\Thermal=
 0.0497148\Dipole=0.,0.,0.\DipoleDeriv=0.0639753,0.,0.,0.,0.0639753,0.,
 0.,0.,0.0639753,-0.0159938,0.0720489,-0.0720489,0.0720489,-0.0159938,0
 .0720489,-0.0720489,0.0720489,-0.0159938,-0.0159938,-0.0720489,0.07204
 89,-0.0720489,-0.0159938,0.0720489,0.0720489,0.0720489,-0.0159938,-0.0
 159938,-0.0720489,-0.0720489,-0.0720489,-0.0159938,-0.0720489,-0.07204
 89,-0.0720489,-0.0159938,-0.0159938,0.0720489,0.0720489,0.0720489,-0.0
 159938,-0.0720489,0.0720489,-0.0720489,-0.0159938\Polar=15.9967862,0.,
 15.9967862,0.,0.,15.9967862\PolarDeriv=0.,0.,-0.0000001,0.,-6.0772404,
 0.,-0.0000002,0.,-0.0000002,-6.0772404,0.,-0.0000002,0.,-6.0772404,0.,
 0.,0.,-0.0000001,-3.1384763,1.5385381,-1.9876656,-1.5385382,1.5193101,
 -1.9876656,1.9876658,-1.5385381,3.1384767,1.5193101,-1.5385382,1.98766
 6,-1.9876657,1.5193101,-1.9876658,-1.5385381,1.5385382,-3.1384764,-3.1
 384768,-1.5385382,-1.987666,1.5385383,1.5193101,-1.987666,-1.9876657,-
 1.5385382,-3.1384768,1.5193101,1.5385382,-1.9876658,1.9876659,1.519310
 1,1.987666,-1.5385383,-1.5385382,3.1384768,3.1384766,1.5385382,1.98766
 58,1.5385382,1.5193101,1.9876657,1.987666,1.5385382,3.1384766,1.51931,
 1.5385382,1.9876658,1.9876657,1.5193101,1.9876657,1.5385382,1.5385382,
 3.1384767,3.1384766,-1.5385382,1.9876659,-1.5385382,1.5193101,1.987665
 8,-1.9876658,1.5385381,-3.1384764,1.5193101,-1.5385381,-1.9876657,-1.9
 876659,1.51931,-1.9876659,1.5385382,-1.5385382,-3.1384769\HyperPolar=0
 .,0.,0.,0.,0.0000002,11.7588099,0.0000002,0.,0.,0.0000002\PG=TD [O(C1)
 ,4C3(H1)]\NImag=0\\0.59833311,-0.00000001,0.59833311,0.,0.,0.59833312,
 -0.14958328,0.09745502,-0.09745501,0.15794627,0.09745502,-0.14958328,0
 .09745501,-0.10729036,0.15794627,-0.09745501,0.09745501,-0.14958328,0.
 10729036,-0.10729036,0.15794627,-0.14958328,-0.09745501,0.09745501,0.0
 1473491,0.01304064,-0.01304064,0.15794626,-0.09745501,-0.14958328,0.09
 745501,-0.01304064,-0.01154895,0.00983534,0.10729035,0.15794626,0.0974
 5501,0.09745501,-0.14958328,0.01304064,0.00983534,-0.01154895,-0.10729
 035,-0.10729035,0.15794627,-0.14958328,-0.09745501,-0.09745501,-0.0115
 4895,-0.01304064,-0.00983534,-0.01154895,-0.00983534,-0.01304064,0.157
 94626,-0.09745501,-0.14958327,-0.09745501,0.01304064,0.01473491,0.0130
 4064,-0.00983534,-0.01154895,-0.01304064,0.10729035,0.15794626,-0.0974
 5501,-0.09745501,-0.14958328,-0.00983534,-0.01304064,-0.01154895,0.013
 04064,0.01304064,0.01473491,0.10729036,0.10729036,0.15794627,-0.149583
 28,0.09745502,0.09745501,-0.01154895,0.00983534,0.01304064,-0.01154895
 ,0.01304064,0.00983534,0.01473492,-0.01304064,-0.01304064,0.15794627,0
 .09745501,-0.14958328,-0.09745501,0.00983534,-0.01154895,-0.01304064,-
 0.01304064,0.01473492,0.01304064,0.01304064,-0.01154895,-0.00983534,-0
 .10729036,0.15794627,0.09745502,-0.09745502,-0.14958328,-0.01304064,0.
 01304064,0.01473491,0.00983534,-0.01304064,-0.01154895,0.01304064,-0.0
 0983534,-0.01154895,-0.10729036,0.10729036,0.15794627\\0.,0.,0.,-0.000
 00521,0.00000521,-0.00000521,-0.00000521,-0.00000521,0.00000522,0.0000
 0521,0.00000521,0.00000522,0.00000521,-0.00000521,-0.00000521\\\@


 ABSOLUTISM, OBSOLETISM -- IF IT WORKS, IT'S OUT OF DATE

                          -- STAFFORD BEER
 Job cpu time:       0 days  0 hours  0 minutes 13.3 seconds.
 File lengths (MBytes):  RWF=     77 Int=      0 D2E=      0 Chk=      2 Scr=      2
 Normal termination of Gaussian 09 at Thu Aug 17 20:50:58 2017.
