Cl alone                                                                
Freq      RHF                                                         STO-3G              
Number of atoms                            I                1
Info1-9                                    I   N=           9
          10           8           0           0           0         100
           6           1           2
Charge                                     I               -1
Multiplicity                               I                1
Number of electrons                        I               18
Number of alpha electrons                  I                9
Number of beta electrons                   I                9
Number of basis functions                  I                9
Number of independent functions            I                9
Number of point charges in /Mol/           I                0
Number of translation vectors              I                0
Atomic numbers                             I   N=           1
          17
Nuclear charges                            R   N=           1
  1.70000000E+01
Current cartesian coordinates              R   N=           3
  0.00000000E+00  0.00000000E+00  0.00000000E+00
Force Field                                I                0
Int Atom Types                             I   N=           1
           0
MM charges                                 R   N=           1
  0.00000000E+00
Integer atomic weights                     I   N=           1
          35
Real atomic weights                        R   N=           1
  3.49688527E+01
Atom fragment info                         I   N=           1
           0
Atom residue num                           I   N=           1
           0
Nuclear spins                              I   N=           1
           3
Nuclear ZEff                               R   N=           1
 -1.42400000E+01
Nuclear ZNuc                               R   N=           1
  1.70000000E+01
Nuclear QMom                               R   N=           1
 -8.16500000E+00
Nuclear GFac                               R   N=           1
  8.21874000E-01
MicOpt                                     I   N=           1
          -1
Number of contracted shells                I                3
Number of primitive shells                 I                9
Pure/Cartesian d shells                    I                0
Pure/Cartesian f shells                    I                0
Highest angular momentum                   I                1
Largest degree of contraction              I                3
Shell types                                I   N=           3
           0          -1          -1
Number of primitives per shell             I   N=           3
           3           3           3
Shell to atom map                          I   N=           3
           1           1           1
Primitive exponents                        R   N=           9
  6.01345614E+02  1.09535854E+02  2.96446769E+01  3.89604189E+01  9.05356348E+00
  2.94449983E+00  2.12938650E+00  5.94093427E-01  2.32524141E-01
Contraction coefficients                   R   N=           9
  1.54328967E-01  5.35328142E-01  4.44634542E-01 -9.99672292E-02  3.99512826E-01
  7.00115469E-01 -2.19620369E-01  2.25595434E-01  9.00398426E-01
P(S=P) Contraction coefficients            R   N=           9
  0.00000000E+00  0.00000000E+00  0.00000000E+00  1.55916275E-01  6.07683719E-01
  3.91957393E-01  1.05876043E-02  5.95167005E-01  4.62001012E-01
Coordinates of each shell                  R   N=           9
  0.00000000E+00  0.00000000E+00  0.00000000E+00  0.00000000E+00  0.00000000E+00
  0.00000000E+00  0.00000000E+00  0.00000000E+00  0.00000000E+00
Constraint Structure                       R   N=           3
  0.00000000E+00  0.00000000E+00  0.00000000E+00
Num ILSW                                   I              100
ILSW                                       I   N=         100
           0           0           0           0           2           0
           0           0           0           0           0          -1
           0           0           0           0           2           0
           0           0           0           0           1           0
           1           0           0           0           0           0
           0           0      100000           0          -1           0
           0           0           0           0           0           0
           0           0           0           1           0           0
           0           0           1           0           0           0
           0           0           4          41           0           0
           0           0           0           0           0           0
           0           0           0           1           0           0
           0           0           0           0           0           0
           0           0           0           0           0           0
           0           0           0           0           0           0
           0           0           0           0           0           0
           0           0           0           0
Num RLSW                                   I               41
RLSW                                       R   N=          41
  1.00000000E+00  1.00000000E+00  1.00000000E+00  1.00000000E+00  1.00000000E+00
  0.00000000E+00  0.00000000E+00  1.00000000E+00  0.00000000E+00  0.00000000E+00
  0.00000000E+00  0.00000000E+00  1.00000000E+00  0.00000000E+00  0.00000000E+00
  0.00000000E+00  0.00000000E+00  1.00000000E+00  0.00000000E+00  0.00000000E+00
  0.00000000E+00  0.00000000E+00  1.00000000E+00  0.00000000E+00  0.00000000E+00
  0.00000000E+00  0.00000000E+00  1.00000000E+00  0.00000000E+00  0.00000000E+00
  0.00000000E+00  0.00000000E+00  1.00000000E+00  0.00000000E+00  0.00000000E+00
  0.00000000E+00  0.00000000E+00  0.00000000E+00  1.00000000E+00  1.00000000E+00
  0.00000000E+00
MxBond                                     I                1
NBond                                      I   N=           1
           0
IBond                                      I   N=           1
           0
RBond                                      R   N=           1
  0.00000000E+00
Virial Ratio                               R      2.012600172321588E+00
SCF Energy                                 R     -4.544804216069116E+02
Total Energy                               R     -4.544804216069116E+02
RMS Density                                R      6.156330006790515E-17
External E-field                           R   N=          35
  0.00000000E+00  0.00000000E+00  0.00000000E+00  0.00000000E+00  0.00000000E+00
  0.00000000E+00  0.00000000E+00  0.00000000E+00  0.00000000E+00  0.00000000E+00
  0.00000000E+00  0.00000000E+00  0.00000000E+00  0.00000000E+00  0.00000000E+00
  0.00000000E+00  0.00000000E+00  0.00000000E+00  0.00000000E+00  0.00000000E+00
  0.00000000E+00  0.00000000E+00  0.00000000E+00  0.00000000E+00  0.00000000E+00
  0.00000000E+00  0.00000000E+00  0.00000000E+00  0.00000000E+00  0.00000000E+00
  0.00000000E+00  0.00000000E+00  0.00000000E+00  0.00000000E+00  0.00000000E+00
IOpCl                                      I                0
IROHF                                      I                0
Alpha Orbital Energies                     R   N=           9
 -1.02996368E+02 -9.72758961E+00 -7.16817107E+00 -7.16817107E+00 -7.16817107E+00
 -5.07298326E-01  6.17709014E-02  6.17709014E-02  6.17709014E-02
Alpha MO coefficients                      R   N=          81
  9.94484819E-01  1.57969545E-02  0.00000000E+00  0.00000000E+00  0.00000000E+00
 -1.63344212E-03  0.00000000E+00  0.00000000E+00  0.00000000E+00 -3.77189376E-01
  1.05364403E+00  0.00000000E+00  0.00000000E+00  0.00000000E+00  4.22823797E-02
  0.00000000E+00  0.00000000E+00  0.00000000E+00  0.00000000E+00  0.00000000E+00
  9.89575402E-01  0.00000000E+00  0.00000000E+00  0.00000000E+00  4.13433551E-02
  0.00000000E+00  0.00000000E+00  0.00000000E+00  0.00000000E+00  0.00000000E+00
  0.00000000E+00  9.89575402E-01  0.00000000E+00  0.00000000E+00  0.00000000E+00
  4.13433551E-02  0.00000000E+00  0.00000000E+00  0.00000000E+00  9.89575402E-01
  0.00000000E+00  0.00000000E+00  0.00000000E+00  4.13433551E-02  0.00000000E+00
  8.92210504E-02 -2.92769058E-01  0.00000000E+00  0.00000000E+00  0.00000000E+00
  1.02622741E+00  0.00000000E+00  0.00000000E+00  0.00000000E+00  0.00000000E+00
  0.00000000E+00  0.00000000E+00  0.00000000E+00 -2.79159983E-01  0.00000000E+00
  0.00000000E+00  0.00000000E+00  1.02736581E+00  0.00000000E+00  0.00000000E+00
  0.00000000E+00 -2.79159983E-01  0.00000000E+00  0.00000000E+00  0.00000000E+00
  1.02736581E+00  0.00000000E+00  0.00000000E+00  0.00000000E+00 -2.79159983E-01
  0.00000000E+00  0.00000000E+00  0.00000000E+00  1.02736581E+00  0.00000000E+00
  0.00000000E+00
Total SCF Density                          R   N=          45
  2.27846455E+00 -8.15669334E-01  2.39225803E+00  0.00000000E+00  0.00000000E+00
  2.11437955E+00  0.00000000E+00  0.00000000E+00 -2.05432527E-33  2.11437955E+00
  0.00000000E+00  0.00000000E+00 -4.10865055E-33  2.05432527E-33  2.11437955E+00
  1.47976380E-01 -5.11845719E-01  0.00000000E+00  0.00000000E+00  0.00000000E+00
  2.10986634E+00  0.00000000E+00  0.00000000E+00 -4.91774107E-01  1.54074396E-33
  1.02716264E-33  0.00000000E+00  2.11437955E+00  0.00000000E+00  0.00000000E+00
  1.54074396E-33 -4.91774107E-01 -5.13581319E-34  0.00000000E+00  2.05432527E-33
  2.11437955E+00  0.00000000E+00  0.00000000E+00  1.02716264E-33 -5.13581319E-34
 -4.91774107E-01  0.00000000E+00  0.00000000E+00  2.05432527E-33  2.11437955E+00
Mulliken Charges                           R   N=           1
 -1.00000000E+00
ONIOM Charges                              I   N=          16
          -1           0           0           0           0           0
           0           0           0           0           0           0
           0           0           0           0
ONIOM Multiplicities                       I   N=          16
           1           0           0           0           0           0
           0           0           0           0           0           0
           0           0           0           0
Atom Layers                                I   N=           1
           1
Atom Modifiers                             I   N=           1
           0
Force Field                                I                0
Int Atom Modified Types                    I   N=           1
           0
Link Atoms                                 I   N=           1
           0
Atom Modified MM Charges                   R   N=           1
  0.00000000E+00
Link Distances                             R   N=           4
  0.00000000E+00  0.00000000E+00  0.00000000E+00  0.00000000E+00
Cartesian Gradient                         R   N=           3
  0.00000000E+00  0.00000000E+00  0.00000000E+00
Cartesian Force Constants                  R   N=           6
  0.00000000E+00 -9.30549761E-47  0.00000000E+00  0.00000000E+00 -5.47382213E-48
  0.00000000E+00
Dipole Moment                              R   N=           3
  0.00000000E+00  0.00000000E+00  0.00000000E+00
Dipole Derivatives                         R   N=           9
 -1.00000000E+00  0.00000000E+00  0.00000000E+00  0.00000000E+00 -1.00000000E+00
  0.00000000E+00  0.00000000E+00  0.00000000E+00 -1.00000000E+00
Polarizability                             R   N=           6
  0.00000000E+00  0.00000000E+00  0.00000000E+00  0.00000000E+00  0.00000000E+00
  0.00000000E+00
Polarizability Derivatives                 R   N=          18
  0.00000000E+00  0.00000000E+00  0.00000000E+00  0.00000000E+00  0.00000000E+00
  0.00000000E+00  0.00000000E+00  0.00000000E+00  0.00000000E+00  0.00000000E+00
  0.00000000E+00  0.00000000E+00  0.00000000E+00  0.00000000E+00  0.00000000E+00
  0.00000000E+00  0.00000000E+00  0.00000000E+00
HyperPolarizability                        R   N=          10
  0.00000000E+00  0.00000000E+00  0.00000000E+00  0.00000000E+00  0.00000000E+00
  0.00000000E+00  0.00000000E+00  0.00000000E+00  0.00000000E+00  0.00000000E+00
QEq coupling tensors                       R   N=           6
  0.00000000E+00  0.00000000E+00  0.00000000E+00  0.00000000E+00  0.00000000E+00
  0.00000000E+00
