finite field calculation (-1, 0, 0)                                     
SP        RMP2-FC                                                     6-31+G(d)           
Number of atoms                            I                3
Info1-9                                    I   N=           9
          15          15           0           0           0         111
           1           2           1
Charge                                     I                0
Multiplicity                               I                1
Number of electrons                        I               10
Number of alpha electrons                  I                5
Number of beta electrons                   I                5
Number of basis functions                  I               23
Number of independent functions            I               23
Number of point charges in /Mol/           I                0
Number of translation vectors              I                0
Atomic numbers                             I   N=           3
           8           1           1
Nuclear charges                            R   N=           3
  8.00000000E+00  1.00000000E+00  1.00000000E+00
Current cartesian coordinates              R   N=           9
  0.00000000E+00  0.00000000E+00  2.19030238E-01  0.00000000E+00  1.45230387E+00
 -8.76120934E-01  0.00000000E+00 -1.45230387E+00 -8.76120934E-01
Force Field                                I                0
Int Atom Types                             I   N=           3
           0           0           0
MM charges                                 R   N=           3
  0.00000000E+00  0.00000000E+00  0.00000000E+00
Integer atomic weights                     I   N=           3
          16           1           1
Real atomic weights                        R   N=           3
  1.59949146E+01  1.00782504E+00  1.00782504E+00
Atom fragment info                         I   N=           3
           0           0           0
Atom residue num                           I   N=           3
           0           0           0
Nuclear spins                              I   N=           3
           0           1           1
Nuclear ZEff                               R   N=           3
 -5.60000000E+00 -1.00000000E+00 -1.00000000E+00
Nuclear ZNuc                               R   N=           3
  8.00000000E+00  1.00000000E+00  1.00000000E+00
Nuclear QMom                               R   N=           3
  0.00000000E+00  0.00000000E+00  0.00000000E+00
Nuclear GFac                               R   N=           3
  0.00000000E+00  2.79284600E+00  2.79284600E+00
MicOpt                                     I   N=           3
          -1          -1          -1
Number of contracted shells                I                9
Number of primitive shells                 I               20
Pure/Cartesian d shells                    I                1
Pure/Cartesian f shells                    I                0
Highest angular momentum                   I                2
Largest degree of contraction              I                6
Shell types                                I   N=           9
           0          -1          -1          -1           2           0
           0           0           0
Number of primitives per shell             I   N=           9
           6           3           1           1           1           3
           1           3           1
Shell to atom map                          I   N=           9
           1           1           1           1           1           2
           2           3           3
Primitive exponents                        R   N=          20
  5.48467166E+03  8.25234946E+02  1.88046958E+02  5.29645000E+01  1.68975704E+01
  5.79963534E+00  1.55396162E+01  3.59993359E+00  1.01376175E+00  2.70005823E-01
  8.45000000E-02  8.00000000E-01  1.87311370E+01  2.82539436E+00  6.40121692E-01
  1.61277759E-01  1.87311370E+01  2.82539436E+00  6.40121692E-01  1.61277759E-01
Contraction coefficients                   R   N=          20
  1.83107443E-03  1.39501722E-02  6.84450781E-02  2.32714336E-01  4.70192898E-01
  3.58520853E-01 -1.10777550E-01 -1.48026263E-01  1.13076702E+00  1.00000000E+00
  1.00000000E+00  1.00000000E+00  3.34946043E-02  2.34726953E-01  8.13757326E-01
  1.00000000E+00  3.34946043E-02  2.34726953E-01  8.13757326E-01  1.00000000E+00
P(S=P) Contraction coefficients            R   N=          20
  0.00000000E+00  0.00000000E+00  0.00000000E+00  0.00000000E+00  0.00000000E+00
  0.00000000E+00  7.08742682E-02  3.39752839E-01  7.27158577E-01  1.00000000E+00
  1.00000000E+00  0.00000000E+00  0.00000000E+00  0.00000000E+00  0.00000000E+00
  0.00000000E+00  0.00000000E+00  0.00000000E+00  0.00000000E+00  0.00000000E+00
Coordinates of each shell                  R   N=          27
  0.00000000E+00  0.00000000E+00  2.19030238E-01  0.00000000E+00  0.00000000E+00
  2.19030238E-01  0.00000000E+00  0.00000000E+00  2.19030238E-01  0.00000000E+00
  0.00000000E+00  2.19030238E-01  0.00000000E+00  0.00000000E+00  2.19030238E-01
  0.00000000E+00  1.45230387E+00 -8.76120934E-01  0.00000000E+00  1.45230387E+00
 -8.76120934E-01  0.00000000E+00 -1.45230387E+00 -8.76120934E-01  0.00000000E+00
 -1.45230387E+00 -8.76120934E-01
Constraint Structure                       R   N=           9
  0.00000000E+00  0.00000000E+00  2.19030238E-01  0.00000000E+00  1.45230387E+00
 -8.76120934E-01  0.00000000E+00 -1.45230387E+00 -8.76120934E-01
Num ILSW                                   I              100
ILSW                                       I   N=         100
           0           1           0           0           2           0
           0           0           0           0           0          -1
           0           0           0           0           0           0
           0           0           0           0           0           0
           1           1           0           0           0           0
           0           0      100000           0          -1           0
           0           0           0           0           0           0
           0           0           0           1           0           0
           0           0           1           0           0           0
           0           0           4          41           0           0
           0           0           0           0           0           0
           0           0           0           3           0           0
           0           0           0           0           0           0
           0           0           0           0           0           0
           0           0           0           0           0           0
           0           0           0           0           0           0
           0           0           0           0
Num RLSW                                   I               41
RLSW                                       R   N=          41
  1.00000000E+00  1.00000000E+00  1.00000000E+00  1.00000000E+00  1.00000000E+00
  0.00000000E+00  0.00000000E+00  1.00000000E+00  0.00000000E+00  0.00000000E+00
  0.00000000E+00  0.00000000E+00  1.00000000E+00  0.00000000E+00  0.00000000E+00
  0.00000000E+00  0.00000000E+00  1.00000000E+00  0.00000000E+00  0.00000000E+00
  0.00000000E+00  0.00000000E+00  1.00000000E+00  0.00000000E+00  0.00000000E+00
  0.00000000E+00  0.00000000E+00  1.00000000E+00  0.00000000E+00  0.00000000E+00
  0.00000000E+00  0.00000000E+00  1.00000000E+00  0.00000000E+00  0.00000000E+00
  0.00000000E+00  0.00000000E+00  0.00000000E+00  1.00000000E+00  1.00000000E+00
  0.00000000E+00
MxBond                                     I                2
NBond                                      I   N=           3
           2           1           1
IBond                                      I   N=           6
           2           3           1           0           1           0
RBond                                      R   N=           6
  1.00000000E+00  1.00000000E+00  1.00000000E+00  0.00000000E+00  1.00000000E+00
  0.00000000E+00
Virial Ratio                               R      2.003765950964346E+00
SCF Energy                                 R     -7.601728133183788E+01
MP2 Energy                                 R     -7.620964830299292E+01
Total Energy                               R     -7.620964830299292E+01
Post-SCF wavefunction norm                 R      1.026088426058664E+00
RMS Density                                R      6.214059363701016E-12
External E-field                           R   N=          35
  0.00000000E+00 -4.00000000E-04  0.00000000E+00  0.00000000E+00  0.00000000E+00
  0.00000000E+00  0.00000000E+00  0.00000000E+00  0.00000000E+00  0.00000000E+00
  0.00000000E+00  0.00000000E+00  0.00000000E+00  0.00000000E+00  0.00000000E+00
  0.00000000E+00  0.00000000E+00  0.00000000E+00  0.00000000E+00  0.00000000E+00
  0.00000000E+00  0.00000000E+00  0.00000000E+00  0.00000000E+00  0.00000000E+00
  0.00000000E+00  0.00000000E+00  0.00000000E+00  0.00000000E+00  0.00000000E+00
  0.00000000E+00  0.00000000E+00  0.00000000E+00  0.00000000E+00  0.00000000E+00
IOpCl                                      I                0
IROHF                                      I                0
Alpha Orbital Energies                     R   N=          23
 -2.05813662E+01 -1.35354059E+00 -7.22380244E-01 -5.81152546E-01 -5.08457998E-01
  1.46336017E-01  2.20032935E-01  2.50639540E-01  2.52795124E-01  3.52429678E-01
  3.82943110E-01  1.23362750E+00  1.32787948E+00  1.39356181E+00  1.40473208E+00
  1.41526511E+00  1.47687625E+00  2.01199372E+00  2.01894557E+00  2.05608799E+00
  2.61699094E+00  3.00933869E+00  4.09972288E+00
Alpha MO coefficients                      R   N=         529
  9.94583158E-01  2.09763674E-02 -2.19286993E-06 -1.39029431E-17 -1.36566460E-03
  4.92841964E-03  9.78053939E-07 -9.53789892E-16  7.73657299E-04 -5.58195760E-04
 -4.91234497E-07 -4.15707567E-16 -3.37452309E-04 -4.10680638E-03 -4.38615851E-03
 -4.25900569E-03  9.34088618E-18 -2.66903561E-08  9.00076519E-16  3.40346609E-04
 -1.11996535E-04  3.40346609E-04 -1.11996535E-04 -2.09781129E-01  4.80139172E-01
 -6.36692280E-05  7.33709185E-17 -9.07638061E-02  4.38740008E-01 -1.33292720E-04
 -1.80956729E-15 -5.89069221E-02  5.48530444E-02 -4.33152584E-05 -2.85240529E-15
 -1.44169690E-02 -7.52508283E-04  2.88321029E-02  2.19412218E-02 -4.07293350E-16
  1.40125314E-05  6.66114203E-16  1.31736036E-01 -3.25761405E-02  1.31736036E-01
 -3.25761405E-02 -1.72259455E-15  5.44793216E-15 -7.28850484E-16  5.11306120E-01
  1.45946346E-14  3.39075664E-15 -3.19571667E-16  3.07635884E-01  1.08491588E-14
 -7.92141139E-16  3.17437036E-16  4.28705599E-03  1.53811394E-15  1.18471796E-15
  7.89998304E-16 -8.45388088E-16 -6.57137321E-05 -8.95418519E-17 -5.07898285E-02
  2.30459956E-01  1.00462869E-01 -2.30459956E-01 -1.00462869E-01 -6.88495343E-02
  1.69976424E-01 -4.03079875E-04 -1.19621789E-14  5.60481811E-01  2.62910778E-01
 -3.24720396E-04 -7.59287794E-15  3.81404465E-01  1.83914197E-02 -3.58385906E-05
 -3.60585496E-15  5.50463878E-02  1.81602608E-02  6.69688612E-03 -3.84318113E-02
 -6.13289841E-17 -5.21653746E-05  8.30413168E-16 -1.41259607E-01 -6.74665999E-02
 -1.41259607E-01 -6.74665999E-02 -1.10083639E-04  4.12891817E-04  6.38828344E-01
  6.57803907E-16  3.05683284E-04  1.92508529E-04  4.65318919E-01 -7.99097267E-16
  3.91246652E-04 -1.40195202E-03  8.26458701E-02 -1.12034011E-15  3.86952602E-04
 -4.49341752E-05  8.22122490E-05  5.25717142E-05 -8.43293467E-17 -3.28291073E-02
  2.78039795E-16 -2.87263507E-05  5.55769423E-04 -2.87263507E-05  5.55769423E-04
  8.20660583E-02 -4.67710685E-02  1.71678675E-03 -1.89053650E-15  1.61797366E-01
 -9.77526360E-01  4.02109765E-03 -1.62158694E-15  2.03000865E-01  1.82548066E+00
 -8.79031848E-03 -2.42492553E-14 -7.00639134E-01  6.15208309E-02  4.86290904E-02
  4.50382213E-02 -5.11405947E-17 -7.77755618E-05  1.64202030E-15  5.40825699E-02
 -3.29915443E-01  5.40825699E-02 -3.29915443E-01  1.62779197E-14  1.21589299E-14
 -4.62539531E-15 -1.88384665E-01  1.79195431E-15 -2.70428467E-13 -1.11364021E-14
 -4.48555652E-01  2.93286539E-14 -2.38810995E-13  2.67955403E-14  1.42612186E+00
  2.53347610E-13  2.03133949E-14  2.10180408E-14  1.83744957E-14  3.01785786E-06
 -5.76519801E-17  2.84811775E-02  1.70072537E-02 -3.02167678E-01 -1.70072537E-02
  3.02167678E-01  6.33522378E-02 -1.98505331E-02  2.29810450E-02  5.05324242E-14
 -1.22679123E-01 -8.62541576E-01  5.70154068E-02  1.36157054E-13 -3.17941551E-01
  7.89311970E-02 -1.35909102E-01 -1.87833785E-14  1.34181551E+00  4.68984246E-02
  5.68094571E-02  5.77960396E-02 -2.07349954E-16 -8.36904281E-04 -2.60053315E-15
  2.34870039E-02  5.45631876E-01  2.34870039E-02  5.45631876E-01  7.84925736E-03
 -2.92300327E-03 -2.06728457E-01  1.04546485E-14 -1.15107569E-02 -1.06900174E-01
 -5.13940941E-01  2.79552449E-14 -3.03242290E-02  6.23267706E-03  1.22669841E+00
 -3.09677697E-14  1.48479142E-01  5.70992045E-03  6.70023684E-03  6.67011112E-03
 -1.03535558E-16  7.50004210E-03 -9.36883013E-16  3.37262247E-03  7.03501018E-02
  3.37262247E-03  7.03501018E-02 -7.73788227E-14 -5.63578982E-14 -1.88286639E-15
 -2.73890552E-01 -2.76639221E-13  1.51788155E-12 -4.83053587E-15 -7.56826925E-01
 -9.61422617E-13  4.02213835E-12  1.17424079E-14 -1.20951884E+00 -1.13509415E-12
 -7.91014805E-14 -1.06084600E-13 -5.81631311E-14  2.66797308E-05  1.08593483E-15
 -1.94436012E-03  1.09730105E-01  2.03648219E+00 -1.09730105E-01 -2.03648219E+00
 -5.76298651E-02  4.12078369E-02 -1.01581664E-03  3.38345222E-13 -2.21822564E-01
  1.02956189E+00 -2.10347438E-03  9.31674315E-13 -7.12713045E-01  3.19267547E+00
  5.72366685E-03  1.59404734E-12 -1.00409589E+00 -1.86323931E-02 -4.24229198E-02
 -4.35766178E-03 -1.38740523E-16  4.40247001E-05  7.77617557E-15 -1.15517552E-01
 -2.53117029E+00 -1.15517552E-01 -2.53117029E+00 -2.70710126E-14 -7.55231950E-13
 -5.48931177E-15  4.00713781E-01  1.99852203E-13  1.78653801E-12  8.36371299E-15
  6.44691820E-02 -2.21072636E-13  3.23817582E-13 -2.97423486E-15 -9.31506638E-01
 -2.65941959E-13 -2.76918849E-13 -2.24827411E-13 -2.52051213E-13 -6.45053321E-05
 -2.08038842E-15  2.62067715E-01 -8.58208475E-01  1.61799439E+00  8.58208475E-01
 -1.61799439E+00 -9.19757113E-03 -1.08874326E+00  6.14593186E-04 -2.15201802E-13
  4.55367556E-01  2.49261956E+00 -9.24565248E-04  7.87186148E-14 -4.46176914E-01
  1.44381842E+00  5.18402684E-04  5.01434617E-13 -7.16825000E-01 -4.19447373E-01
 -1.62612749E-01 -3.08686840E-01  4.12771328E-16  7.85175297E-06 -1.34541072E-13
  6.95332007E-01 -1.96620350E+00  6.95332007E-01 -1.96620350E+00  7.98034956E-15
  1.31291914E-13 -2.62418774E-13 -9.61866968E-01 -2.36557957E-14 -3.29874297E-13
  3.78404210E-13  1.65458108E+00  6.63351846E-14  1.48620711E-14 -1.71830477E-13
 -5.09371305E-01  1.38013564E-14  3.10638564E-14  5.75048284E-14  3.79234250E-14
 -1.55915040E-04 -7.17494121E-15  1.01156948E-01 -2.07219872E-01 -2.27057321E-01
  2.07219872E-01  2.27057321E-01  5.90390446E-04  6.87625762E-03 -9.91444090E-01
  2.53948758E-13 -1.14434814E-03 -1.75120760E-02  1.42947813E+00 -4.44307174E-13
  4.97768924E-03  7.96192225E-03 -6.47241550E-01  1.41794589E-13 -2.73510123E-03
  7.08312557E-04  4.19491825E-03  2.09778687E-03 -1.09104489E-15 -3.14163048E-02
 -2.69587493E-14  4.67393479E-03 -3.05500490E-03  4.67393479E-03 -3.05500490E-03
  2.40091553E-02 -1.97988941E-02  3.24756906E-03  3.43099425E-14 -8.74114968E-01
 -2.15300850E-01 -4.74262279E-03 -4.85114287E-14  1.55854957E+00  6.37172804E-02
  2.11352116E-03 -2.27472697E-15 -6.60277254E-01 -1.27448575E-01  1.76830562E-01
 -6.21693012E-02  2.37979857E-16 -4.56202817E-05  4.76324398E-15  3.99514868E-01
 -1.06969834E-01  3.99514868E-01 -1.06969834E-01 -9.33863280E-02 -1.40615687E+00
 -5.21794789E-03 -1.19824642E-13 -2.66527757E-01  3.34743720E+00  7.88182744E-03
  1.33166114E-13  7.91825649E-03 -1.39109774E+00 -3.75701828E-03  1.69348802E-13
  5.92308833E-02 -2.46016503E-01 -6.91031279E-01 -4.31464950E-01 -2.36846884E-15
 -1.95244015E-04 -5.38298852E-14 -5.31807111E-01  3.58996918E-01 -5.31807111E-01
  3.58996918E-01  7.45175736E-03  5.32451380E-02  7.40118409E-05 -2.88224054E-15
 -1.70922196E-02 -1.68060070E-01 -1.85637800E-04  4.92017437E-15  1.51879694E-01
  6.27228520E-02  7.35975217E-05  1.12015864E-15 -6.05411262E-02 -4.05167780E-01
 -5.51389496E-01  1.00876246E+00  2.00096860E-13 -2.15867888E-04 -1.89218671E-15
  9.30315417E-02 -3.28155934E-02  9.30315417E-02 -3.28155934E-02 -1.56969895E-15
 -1.32560479E-14 -2.03087572E-15 -7.93160960E-05  2.50989689E-15  3.84109591E-14
  3.98064415E-15  2.42749947E-04 -2.95767023E-14 -1.50150031E-14 -8.55724138E-16
 -8.58351870E-05  1.37595408E-14  8.33590192E-14  1.06468224E-13 -2.04043802E-13
  9.99999981E-01  3.46305306E-14  1.07591176E-04 -9.49950100E-06 -4.56729983E-06
  9.49950096E-06  4.56729984E-06 -2.41085516E-06 -6.25169923E-05 -8.61549143E-03
  2.75831361E-15 -8.43536531E-05  1.27506693E-04  6.41570026E-02 -3.74181055E-15
  2.47629554E-04 -6.66639803E-05 -2.69649660E-02 -1.00109305E-15 -8.31854315E-05
 -2.04442811E-04 -4.25430349E-05  2.02404308E-04 -3.54525969E-14  9.98938542E-01
  2.86525444E-15 -3.99644313E-06  1.80357062E-05 -3.99644313E-06  1.80357062E-05
 -6.00576793E-02 -4.64778990E-01 -5.74705829E-05 -2.55036194E-15  5.27489858E-02
  1.48367038E+00  2.80952594E-05  1.56694047E-14 -7.28342169E-01 -3.07477791E-01
 -1.63703767E-05  6.82550982E-16  1.65085478E-01 -1.11524410E+00  7.58661130E-01
 -4.49003198E-03  3.35402515E-15 -8.25643770E-05 -1.83379360E-14 -8.85861432E-01
  1.17501251E-01 -8.85861432E-01  1.17501251E-01  7.60407975E-15 -4.07570518E-14
  3.12138060E-15  5.38998825E-02  1.39380413E-15  1.57705340E-14 -3.55941784E-15
 -9.89815225E-01 -1.87909214E-14  1.50993548E-14  1.20927119E-15  4.11553880E-01
 -9.93514756E-15  1.28038291E-14  3.35123907E-14  2.96875052E-14 -6.17734059E-05
 -2.11997815E-15  1.26731212E+00  1.06846510E+00 -4.32480708E-01 -1.06846510E+00
  4.32480708E-01 -4.88546066E-01  1.94770617E-01 -4.18418602E-05 -3.60400874E-15
  3.30693941E-02  4.10214216E+00  5.85261757E-05 -1.03602727E-14 -8.30043391E-02
 -1.96545752E-01 -2.95696803E-05  5.29169749E-14 -2.61752639E-01 -1.63525240E+00
 -1.62496736E+00 -1.62925678E+00 -5.84650139E-16  1.28744615E-06  2.28018884E-14
  1.56714109E-01 -5.87012325E-01  1.56714109E-01 -5.87012325E-01
Total SCF Density                          R   N=         276
  2.07588810E+00 -1.83128478E-01  5.19731576E-01 -6.27941528E-05  3.29273662E-04
  8.16203639E-01 -1.72949139E-16  1.57496178E-15  1.04750280E-16  5.22867897E-01
 -4.18133572E-02  1.03321829E-01 -4.97158716E-05  1.50260591E-15  6.44759774E-01
 -2.10477914E-01  5.10896716E-01 -2.18783675E-05 -2.75804454E-15  2.15056648E-01
  5.23278396E-01  1.35802259E-07  1.45906044E-04  5.94518107E-01  2.93128447E-16
 -5.53256827E-05 -1.08541320E-04  4.33043639E-01 -1.15217623E-15 -1.00762388E-15
 -1.46305741E-15  3.14592221E-01  7.98929698E-16 -3.50383022E-15 -9.34881914E-16
  1.89279674E-01 -2.62650715E-02  7.31252722E-02  1.99903697E-04  1.96147477E-15
  4.38231889E-01  1.48868819E-01  1.32114562E-04  1.09435698E-15  2.97880286E-01
 -2.66567841E-02  5.89018306E-02 -1.81302225E-03 -1.24383579E-15  1.06594377E-02
  5.77970134E-02 -1.33127785E-03 -9.61884844E-16  7.56473040E-03  6.69875570E-03
  3.93532472E-06  1.44488627E-05  1.05593083E-01  4.34195624E-16  1.82174229E-05
 -2.50377493E-05  7.69134087E-02  6.39278057E-17  4.24342201E-05 -2.37800734E-04
  1.36606860E-02  8.51849925E-16 -3.93657773E-15 -1.43438734E-15  4.38399593E-03
 -3.39865538E-15 -4.37442109E-15 -1.04226956E-15  2.63770452E-03 -2.32302352E-15
 -4.48746300E-16 -1.81955255E-16  3.67576982E-05 -2.20235422E-03  4.85503560E-03
  4.51853712E-04  2.54347552E-16  6.43232345E-02  1.62907979E-02  3.28206057E-04
  1.62639318E-16  4.36881754E-02  4.42424905E-04  6.12637801E-05 -3.02131016E-16
  6.47643483E-03 -1.03540379E-02  5.27868609E-03 -7.19366861E-05  7.76979163E-16
  2.05047823E-02  8.84824818E-03 -5.34188834E-05  4.63775530E-16  1.39350753E-02
  5.90142009E-04 -8.65969932E-06 -1.13000567E-16  2.02374822E-03  6.94458437E-04
 -2.17438340E-02  2.97795261E-02  9.59880708E-05  6.52104232E-16  2.28517323E-03
  2.87777592E-02  6.44658000E-05  2.88254671E-16  1.70490122E-03  3.41405388E-03
  1.06155611E-05 -2.02541644E-16 -9.10404248E-05  2.35860424E-04  1.79076717E-03
 -1.23855662E-02  7.82604293E-03  9.53754992E-05  5.83594806E-17 -4.70519350E-02
 -9.97251294E-04  6.80268711E-05 -7.89518136E-18 -3.19076574E-02  9.98061797E-04
  9.54775899E-06  1.48163314E-16 -4.86080150E-03 -1.39390823E-03  7.87846193E-04
  3.95312645E-03  1.98155400E-16 -4.12357716E-16 -1.07546899E-16 -6.71996668E-05
  3.19222413E-18 -3.90025912E-16 -7.82896540E-17 -4.04318042E-05 -2.74912768E-19
 -4.66082822E-17 -1.39409937E-17 -5.63436898E-07  4.71827559E-18 -1.83936581E-18
 -2.45073085E-17 -1.31363848E-17  8.63658918E-09  8.47879785E-06 -3.13886964E-05
 -4.19442883E-02 -1.33506744E-16 -8.10896944E-05 -2.77739916E-05 -3.05519793E-02
 -1.88376537E-18 -6.71316818E-05  9.16681659E-05 -5.42637775E-03  7.30880747E-17
 -3.15536664E-05  1.03475423E-06 -5.28834500E-06  1.17298624E-06  5.54366618E-18
  2.15550641E-03  1.57149774E-15  4.06547557E-16  4.28517571E-16 -5.19383003E-02
 -6.74861568E-16  6.85698108E-16  2.90501214E-16 -3.12495476E-02 -5.45474455E-16
  1.82302729E-16  1.35944245E-17 -4.35477677E-04 -8.44175808E-17 -9.86025845E-17
 -3.85644855E-17  4.36387587E-17  6.67517837E-06 -9.22798373E-18  5.15921336E-03
 -3.51431399E-02  7.84959114E-02  6.03988393E-05  2.35671172E-01 -1.82261556E-01
  4.13217359E-02  2.98876790E-05  1.41795505E-01 -1.23273914E-01  9.25601638E-03
 -6.03583329E-06  1.97598947E-03 -1.93503828E-02 -5.33168041E-03  5.70146451E-03
  1.66357222E-02 -3.02887676E-05  2.03157340E-05 -2.34100433E-02  1.80841135E-01
  2.27349049E-02 -5.42218646E-02  7.68620064E-04  1.02734559E-01 -6.97134895E-02
 -6.40611948E-02  5.69719722E-04  6.18119668E-02 -4.76259430E-02 -6.05684736E-03
  9.95221087E-05  8.61379886E-04 -6.48778113E-03 -2.40052452E-03 -2.78103569E-03
  3.75721905E-03 -1.32035801E-05 -3.03649295E-05 -1.02049837E-02  5.67829360E-02
  3.14121129E-02 -3.51431399E-02  7.84959114E-02  6.03988393E-05 -2.35671172E-01
 -1.82261556E-01  4.13217359E-02  2.98876790E-05 -1.41795505E-01 -1.23273914E-01
  9.25601638E-03 -6.03583329E-06 -1.97598947E-03 -1.93503828E-02 -5.33168041E-03
  5.70146451E-03  1.66357222E-02  3.02887676E-05  2.03157340E-05  2.34100433E-02
 -3.16060301E-02 -3.58277372E-02  1.80841135E-01  2.27349049E-02 -5.42218646E-02
  7.68620064E-04 -1.02734559E-01 -6.97134895E-02 -6.40611948E-02  5.69719722E-04
 -6.18119668E-02 -4.76259430E-02 -6.05684736E-03  9.95221087E-05 -8.61379886E-04
 -6.48778113E-03 -2.40052452E-03 -2.78103569E-03  3.75721905E-03  1.32035801E-05
 -3.03649295E-05  1.02049837E-02 -3.58277372E-02 -8.95903903E-03  5.67829360E-02
  3.14121129E-02
Mulliken Charges                           R   N=           3
 -9.83623899E-01  4.91811949E-01  4.91811949E-01
ONIOM Charges                              I   N=          16
           0           0           0           0           0           0
           0           0           0           0           0           0
           0           0           0           0
ONIOM Multiplicities                       I   N=          16
           1           0           0           0           0           0
           0           0           0           0           0           0
           0           0           0           0
Atom Layers                                I   N=           3
           1           1           1
Atom Modifiers                             I   N=           3
           0           0           0
Force Field                                I                0
Int Atom Modified Types                    I   N=           3
           0           0           0
Link Atoms                                 I   N=           3
           0           0           0
Atom Modified MM Charges                   R   N=           3
  0.00000000E+00  0.00000000E+00  0.00000000E+00
Link Distances                             R   N=          12
  0.00000000E+00  0.00000000E+00  0.00000000E+00  0.00000000E+00  0.00000000E+00
  0.00000000E+00  0.00000000E+00  0.00000000E+00  0.00000000E+00  0.00000000E+00
  0.00000000E+00  0.00000000E+00
Cartesian Gradient                         R   N=           9
  0.00000000E+00  0.00000000E+00  0.00000000E+00  0.00000000E+00  0.00000000E+00
  0.00000000E+00  0.00000000E+00  0.00000000E+00  0.00000000E+00
