 Entering Gaussian System, Link 0=/home/acad/unamur-ucpts/pbeaujea/gaussian/g09/g09
 Initial command:
 /home/acad/unamur-ucpts/pbeaujea/gaussian/g09/l1.exe "/SCRATCH/acad/nlopt/pbeaujea/77094[2].frontal3/Gau-6153.inp" -scrdir="/SCRATCH/acad/nlopt/pbeaujea/77094[2].frontal3/"
 Entering Link 1 = /home/acad/unamur-ucpts/pbeaujea/gaussian/g09/l1.exe PID=      6155.
  
 Copyright (c) 1988,1990,1992,1993,1995,1998,2003,2009,2013,
            Gaussian, Inc.  All Rights Reserved.
  
 This is part of the Gaussian(R) 09 program.  It is based on
 the Gaussian(R) 03 system (copyright 2003, Gaussian, Inc.),
 the Gaussian(R) 98 system (copyright 1998, Gaussian, Inc.),
 the Gaussian(R) 94 system (copyright 1995, Gaussian, Inc.),
 the Gaussian 92(TM) system (copyright 1992, Gaussian, Inc.),
 the Gaussian 90(TM) system (copyright 1990, Gaussian, Inc.),
 the Gaussian 88(TM) system (copyright 1988, Gaussian, Inc.),
 the Gaussian 86(TM) system (copyright 1986, Carnegie Mellon
 University), and the Gaussian 82(TM) system (copyright 1983,
 Carnegie Mellon University). Gaussian is a federally registered
 trademark of Gaussian, Inc.
  
 This software contains proprietary and confidential information,
 including trade secrets, belonging to Gaussian, Inc.
  
 This software is provided under written license and may be
 used, copied, transmitted, or stored only in accord with that
 written license.
  
 The following legend is applicable only to US Government
 contracts under FAR:
  
                    RESTRICTED RIGHTS LEGEND
  
 Use, reproduction and disclosure by the US Government is
 subject to restrictions as set forth in subparagraphs (a)
 and (c) of the Commercial Computer Software - Restricted
 Rights clause in FAR 52.227-19.
  
 Gaussian, Inc.
 340 Quinnipiac St., Bldg. 40, Wallingford CT 06492
  
  
 ---------------------------------------------------------------
 Warning -- This program may not be used in any manner that
 competes with the business of Gaussian, Inc. or will provide
 assistance to any competitor of Gaussian, Inc.  The licensee
 of this program is prohibited from giving any competitor of
 Gaussian, Inc. access to this program.  By using this program,
 the user acknowledges that Gaussian, Inc. is engaged in the
 business of creating and licensing software in the field of
 computational chemistry and represents and warrants to the
 licensee that it is not a competitor of Gaussian, Inc. and that
 it will not use this program in any manner prohibited above.
 ---------------------------------------------------------------
  

 Cite this work as:
 Gaussian 09, Revision D.01,
 M. J. Frisch, G. W. Trucks, H. B. Schlegel, G. E. Scuseria, 
 M. A. Robb, J. R. Cheeseman, G. Scalmani, V. Barone, B. Mennucci, 
 G. A. Petersson, H. Nakatsuji, M. Caricato, X. Li, H. P. Hratchian, 
 A. F. Izmaylov, J. Bloino, G. Zheng, J. L. Sonnenberg, M. Hada, 
 M. Ehara, K. Toyota, R. Fukuda, J. Hasegawa, M. Ishida, T. Nakajima, 
 Y. Honda, O. Kitao, H. Nakai, T. Vreven, J. A. Montgomery, Jr., 
 J. E. Peralta, F. Ogliaro, M. Bearpark, J. J. Heyd, E. Brothers, 
 K. N. Kudin, V. N. Staroverov, T. Keith, R. Kobayashi, J. Normand, 
 K. Raghavachari, A. Rendell, J. C. Burant, S. S. Iyengar, J. Tomasi, 
 M. Cossi, N. Rega, J. M. Millam, M. Klene, J. E. Knox, J. B. Cross, 
 V. Bakken, C. Adamo, J. Jaramillo, R. Gomperts, R. E. Stratmann, 
 O. Yazyev, A. J. Austin, R. Cammi, C. Pomelli, J. W. Ochterski, 
 R. L. Martin, K. Morokuma, V. G. Zakrzewski, G. A. Voth, 
 P. Salvador, J. J. Dannenberg, S. Dapprich, A. D. Daniels, 
 O. Farkas, J. B. Foresman, J. V. Ortiz, J. Cioslowski, 
 and D. J. Fox, Gaussian, Inc., Wallingford CT, 2013.
 
 ******************************************
 Gaussian 09:  AM64L-G09RevD.01 24-Apr-2013
                10-Mar-2016 
 ******************************************
 %chk=LiH_mini_es_2
 %oldchk=/home/acad/unamur-ucpts/pbeaujea/workdir/LiH_mini/LiH_mini_es_1.chk
 %nprocshared=1
 Will use up to    1 processors via shared memory.
 %mem=1gb
 Copying data from "/home/acad/unamur-ucpts/pbeaujea/workdir/LiH_mini/LiH_mini_es_1.chk" to current chk file "LiH_mini_es
 _2.chk".
 ----------------------------------------------------------------------
 #p CIS=(Read,Conver=4,Root=2,NSTATE=4) gen Density=all Guess=Read Geom
 =Checkpoint nosym
 ----------------------------------------------------------------------
 1/29=2,30=1,38=1/1;
 2/12=2,15=1,40=1/2;
 3/5=7,11=9,14=-4,16=1,25=1,30=1,71=1,116=-2/1,2,8,3;
 4/5=1/1;
 5/5=2,38=6/2;
 8/6=1,10=1,107=2,108=4/1,4;
 9/8=2,9=4,15=1,30=10,41=4,42=3,49=3/14;
 10/5=4,13=10,31=1/2;
 6/7=2,8=2,9=2,10=2,22=-2/1;
 99/5=1,9=1/99;
 Leave Link    1 at Thu Mar 10 10:32:27 2016, MaxMem=   134217728 cpu:         0.0
 (Enter /home/acad/unamur-ucpts/pbeaujea/gaussian/g09/l101.exe)
 ----------------------------------------
 Excited state 2/4 of LiH_mini (with gen)
 ----------------------------------------
 Structure from the checkpoint file:  "LiH_mini_es_2.chk"
 Charge =  0 Multiplicity = 1
 Z-Matrix found in file.
 Li,0,0.,0.,0.04791742
 H,0,0.,0.,-1.45865742
 Recover connectivity data from disk.
 NAtoms=      2 NQM=        2 NQMF=       0 NMMI=      0 NMMIF=      0
                NMic=       0 NMicF=      0.
                    Isotopes and Nuclear Properties:
 (Nuclear quadrupole moments (NQMom) in fm**2, nuclear magnetic moments (NMagM)
  in nuclear magnetons)

  Atom         1           2
 IAtWgt=           7           1
 AtmWgt=   7.0160045   1.0078250
 NucSpn=           3           1
 AtZEff=  -1.3500000  -1.0000000
 NQMom=   -4.0100000   0.0000000
 NMagM=    3.2564240   2.7928460
 AtZNuc=   3.0000000   1.0000000
 Leave Link  101 at Thu Mar 10 10:32:28 2016, MaxMem=   134217728 cpu:         0.1
 (Enter /home/acad/unamur-ucpts/pbeaujea/gaussian/g09/l202.exe)
                          Input orientation:                          
 ---------------------------------------------------------------------
 Center     Atomic      Atomic             Coordinates (Angstroms)
 Number     Number       Type             X           Y           Z
 ---------------------------------------------------------------------
      1          3           0        0.000000    0.000000    0.047917
      2          1           0        0.000000    0.000000   -1.458657
 ---------------------------------------------------------------------
 Symmetry turned off by external request.
 Stoichiometry    HLi
 Framework group  C*V[C*(HLi)]
 Deg. of freedom     1
 Full point group                 C*V     NOp   4
 Rotational constants (GHZ):      0.0000000    252.6634762    252.6634762
 Leave Link  202 at Thu Mar 10 10:32:28 2016, MaxMem=   134217728 cpu:         0.0
 (Enter /home/acad/unamur-ucpts/pbeaujea/gaussian/g09/l301.exe)
 General basis read from cards:  (5D, 7F)
 Centers:       2
 S 6 1.00
     Exponent=  3.5523221220D+01 Coefficients=  9.1635962800D-03
     Exponent=  6.5131437250D+00 Coefficients=  4.9361492940D-02
     Exponent=  1.8221429040D+00 Coefficients=  1.6853830490D-01
     Exponent=  6.2595526600D-01 Coefficients=  3.7056279970D-01
     Exponent=  2.4307674700D-01 Coefficients=  4.1649152980D-01
     Exponent=  1.0011242800D-01 Coefficients=  1.3033408410D-01
 ****
 Centers:       1
 S 6 1.00
     Exponent=  1.6717584620D+02 Coefficients=  9.1635962800D-03
     Exponent=  3.0651508400D+01 Coefficients=  4.9361492940D-02
     Exponent=  8.5751874770D+00 Coefficients=  1.6853830490D-01
     Exponent=  2.9458083370D+00 Coefficients=  3.7056279970D-01
     Exponent=  1.1439435810D+00 Coefficients=  4.1649152980D-01
     Exponent=  4.7113913910D-01 Coefficients=  1.3033408410D-01
 SP 6 1.00
     Exponent=  6.5975639810D+00 Coefficients= -1.3252788090D-02  3.7596966000D-03
     Exponent=  1.3058300920D+00 Coefficients= -4.6991710140D-02  3.7679369800D-02
     Exponent=  4.0585101930D-01 Coefficients= -3.3785371510D-02  1.7389674350D-01
     Exponent=  1.5614551580D-01 Coefficients=  2.5024178610D-01  4.1803643470D-01
     Exponent=  6.7814103900D-02 Coefficients=  5.9511725260D-01  4.2585954770D-01
     Exponent=  3.1084165500D-02 Coefficients=  2.4070617630D-01  1.0170829550D-01
 ****
 Ernie: Thresh=  0.10000D-02 Tol=  0.10000D-05 Strict=F.
     6 basis functions,    36 primitive gaussians,     6 cartesian basis functions
     2 alpha electrons        2 beta electrons
       nuclear repulsion energy         1.0537356550 Hartrees.
 IExCor=    0 DFT=F Ex=HF Corr=None ExCW=0 ScaHFX=  1.000000
 ScaDFX=  1.000000  1.000000  1.000000  1.000000 ScalE2=  1.000000  1.000000
 IRadAn=      0 IRanWt=     -1 IRanGd=            0 ICorTp=0 IEmpDi=  4
 NAtoms=    2 NActive=    2 NUniq=    2 SFac= 1.00D+00 NAtFMM=   60 NAOKFM=F Big=F
 Integral buffers will be    131072 words long.
 Raffenetti 1 integral format.
 Two-electron integral symmetry is turned off.
 Leave Link  301 at Thu Mar 10 10:32:28 2016, MaxMem=   134217728 cpu:         0.0
 (Enter /home/acad/unamur-ucpts/pbeaujea/gaussian/g09/l302.exe)
 NPDir=0 NMtPBC=     1 NCelOv=     1 NCel=       1 NClECP=     1 NCelD=      1
         NCelK=      1 NCelE2=     1 NClLst=     1 CellRange=     0.0.
 One-electron integrals computed using PRISM.
 NBasis=     6 RedAO= T EigKep=  3.22D-01  NBF=     6
 NBsUse=     6 1.00D-06 EigRej= -1.00D+00 NBFU=     6
 Leave Link  302 at Thu Mar 10 10:32:28 2016, MaxMem=   134217728 cpu:         0.1
 (Enter /home/acad/unamur-ucpts/pbeaujea/gaussian/g09/l308.exe)
 Leave Link  308 at Thu Mar 10 10:32:28 2016, MaxMem=   134217728 cpu:         0.0
 (Enter /home/acad/unamur-ucpts/pbeaujea/gaussian/g09/l303.exe)
 DipDrv:  MaxL=1.
 Leave Link  303 at Thu Mar 10 10:32:28 2016, MaxMem=   134217728 cpu:         0.0
 (Enter /home/acad/unamur-ucpts/pbeaujea/gaussian/g09/l401.exe)
 Initial guess from the checkpoint file:  "LiH_mini_es_2.chk"
 B after Tr=     0.000000    0.000000    0.000000
         Rot=    1.000000    0.000000    0.000000    0.000000 Ang=   0.00 deg.
 Guess basis will be translated and rotated to current coordinates.
 JPrj=2 DoOrth=T DoCkMO=T.
 Leave Link  401 at Thu Mar 10 10:32:28 2016, MaxMem=   134217728 cpu:         0.1
 (Enter /home/acad/unamur-ucpts/pbeaujea/gaussian/g09/l502.exe)
 Closed shell SCF:
 Using DIIS extrapolation, IDIIS=  1040.
 Two-electron integral symmetry not used.
 Keep R1 ints in memory in canonical form, NReq=825118.
 IVT=       20129 IEndB=       20129 NGot=   134217728 MDV=   134197369
 LenX=   134197369 LenY=   134196487
 Requested convergence on RMS density matrix=1.00D-08 within 128 cycles.
 Requested convergence on MAX density matrix=1.00D-06.
 Requested convergence on             energy=1.00D-06.
 No special actions if energy rises.
 FoFCou: FMM=F IPFlag=           0 FMFlag=           0 FMFlg1=           0
         NFxFlg=           0 DoJE=F BraDBF=F KetDBF=F FulRan=T
         wScrn=  0.000000 ICntrl=     600 IOpCl=  0 I1Cent=           0 NGrid=           0
         NMat0=    1 NMatS0=     21 NMatT0=    0 NMatD0=    1 NMtDS0=    0 NMtDT0=    0
 Symmetry not used in FoFCou.

 Cycle   1  Pass 1  IDiag  1:
 E= -7.95347068922701    
 DIIS: error= 1.69D-12 at cycle   1 NSaved=   1.
 NSaved= 1 IEnMin= 1 EnMin= -7.95347068922701     IErMin= 1 ErrMin= 1.69D-12
 ErrMax= 1.69D-12  0.00D+00 EMaxC= 1.00D-01 BMatC= 1.99D-23 BMatP= 1.99D-23
 IDIUse=1 WtCom= 1.00D+00 WtEn= 0.00D+00
 Coeff-Com:  0.100D+01
 Coeff:      0.100D+01
 Gap=     0.373 Goal=   None    Shift=    0.000
 Skip diagonalization as Alpha Fock matrix is already diagonal.
 RMSDP=0.00D+00 MaxDP=0.00D+00              OVMax= 0.00D+00

 SCF Done:  E(RHF) =     -7.95347068922701100000 A.U. after    1 cycles
            NFock=  1  Conv=0.00D+00     -V/T= 1.9810
 KE= 8.107712158381D+00 PE=-2.076440793517D+01 EE= 3.649489432605D+00
 Leave Link  502 at Thu Mar 10 10:32:29 2016, MaxMem=   134217728 cpu:         0.1
 (Enter /home/acad/unamur-ucpts/pbeaujea/gaussian/g09/l801.exe)
 ExpMin= 3.11D-02 ExpMax= 1.67D+02 ExpMxC= 3.07D+01 IAcc=3 IRadAn=         5 AccDes= 0.00D+00
 HarFok:  IExCor=  205 AccDes= 0.00D+00 IRadAn=         5 IDoV=-2 UseB2=F ITyADJ=14
 ICtDFT= 12500011 ScaDFX=  1.000000  1.000000  1.000000  1.000000
 Largest valence mixing into a core orbital is  3.30D-04
 Largest core mixing into a valence orbital is  1.42D-04
 Range of M.O.s used for correlation:     2     6
 NBasis=     6 NAE=     2 NBE=     2 NFC=     1 NFV=     0
 NROrb=      5 NOA=     1 NOB=     1 NVA=     4 NVB=     4
 Leave Link  801 at Thu Mar 10 10:32:29 2016, MaxMem=   134217728 cpu:         0.1
 (Enter /home/acad/unamur-ucpts/pbeaujea/gaussian/g09/l804.exe)
 Closed-shell transformation, MDV=   134217728 ITran=3 ISComp=1.
 Semi-Direct transformation.
 ModeAB=           2 MOrb=             1 LenV=     134108754
 LASXX=           16 LTotXX=          16 LenRXX=          16
 LTotAB=          31 MaxLAS=         105 LenRXY=         105
 NonZer=         135 LenScr=      655360 LnRSAI=           0
 LnScr1=           0 LExtra=           0 Total=       655481
 MaxDsk=          -1 SrtSym=           F ITran=            3
 DoSDTr:  NPSUse=  1
 JobTyp=0 Pass  1:  I=   1 to   1.
 (rs|ai) integrals will be sorted in core.
 Complete sort for first half transformation.
 First half transformation complete.
 Complete sort for second half transformation.
 Second half transformation complete.
 Spin components of T(2) and E(2):
     alpha-alpha T2 =      0.00000000000000000000 E2=     0.00000000000000000000
     alpha-beta  T2 =      0.00809350880012706500 E2=    -0.01201670233905763000
     beta-beta   T2 =      0.00000000000000000000 E2=     0.00000000000000000000
 ANorm=    0.1004038599D+01
 E2 =     -0.01201670233905763000 EUMP2 =     -7.96548739156606900000
 Leave Link  804 at Thu Mar 10 10:32:29 2016, MaxMem=   134217728 cpu:         0.1
 (Enter /home/acad/unamur-ucpts/pbeaujea/gaussian/g09/l914.exe)
 RHF ground state
 MDV=   134217728 DFT=F DoStab=F Mixed=F DoRPA=F DoScal=F NonHer=F
 Making orbital integer symmetry assigments:
 FoFJK:  IHMeth= 1 ICntrl=       0 DoSepK=F KAlg= 0 I1Cent=   0 FoldK=F
 IRaf=         0 NMat=   1 IRICut=       1 DoRegI=T DoRafI=F ISym2E= 0.
 FoFCou: FMM=F IPFlag=           0 FMFlag=      100000 FMFlg1=           0
         NFxFlg=           0 DoJE=F BraDBF=F KetDBF=F FulRan=T
         wScrn=  0.000000 ICntrl=       0 IOpCl=  1 I1Cent=           0 NGrid=           0
         NMat0=    1 NMatS0=      1 NMatT0=    0 NMatD0=    1 NMtDS0=    0 NMtDT0=    0
 Symmetry not used in FoFCou.
 Generating guess from checkpoint file densities.
 Convergence on wavefunction:    0.000100000000000
 Davidson Disk Diagonalization:  ConvIn= 1.00D-04 SkipCon=T Conv= 1.00D-04.
 Max sub-space:   200 roots to seek:     4 dimension of matrix:            8
 Iteration     1 Dimension     4 NMult     0 NNew      4
 New state      2 was old state      3
 New state      3 was old state      2
 Excitation Energies [eV] at current iteration:
 Root      1 :     4.620169959741887
 Root      2 :     6.221051529222487
 Root      3 :     6.221051529222530
 Root      4 :    17.838501329708290
 Convergence achieved for final wavefunctions.
 ***********************************************************************
 Excited states from <AA,BB:AA,BB> singles matrix:
 ***********************************************************************
 
 1PDM for each excited state written to RWF  633
 Ground to excited state transition densities written to RWF  633
 Ground to excited state transition electric dipole moments (Au):
       state          X           Y           Z        Dip. S.      Osc.
         1         0.0000      0.0000     -0.4886      0.2388      0.0270
         2         0.6444     -1.2010      0.0000      1.8576      0.2831
         3        -1.2010     -0.6444      0.0000      1.8576      0.2831
         4         0.0000      0.0000      0.9093      0.8268      0.3613
 Ground to excited state transition velocity dipole moments (Au):
       state          X           Y           Z        Dip. S.      Osc.
         1         0.0000      0.0000      0.1207      0.0146      0.0572
         2        -0.0954      0.1779      0.0000      0.0408      0.1189
         3         0.1779      0.0954      0.0000      0.0408      0.1189
         4         0.0000      0.0000     -0.2812      0.0791      0.0804
 Ground to excited state transition magnetic dipole moments (Au):
       state          X           Y           Z
         1         0.0000      0.0000      0.0000
         2         0.7806      0.4188      0.0000
         3         0.4188     -0.7806      0.0000
         4         0.0000      0.0000      0.0000
 Ground to excited state transition velocity quadrupole moments (Au):
       state          XX          YY          ZZ          XY          XZ          YZ
         1         0.0460      0.0460     -0.0147      0.0000      0.0000      0.0000
         2         0.0000      0.0000      0.0000      0.0000      0.0729     -0.1359
         3         0.0000      0.0000      0.0000      0.0000     -0.1359     -0.0729
         4        -0.6119     -0.6119      0.9522      0.0000      0.0000      0.0000
 <0|del|b> * <b|rxdel|0> + <0|del|b> * <b|delr+rdel|0>
 Rotatory Strengths (R) in cgs (10**-40 erg-esu-cm/Gauss)
       state          XX          YY          ZZ    R(velocity)    E-M Angle
         1         0.0000      0.0000      0.0000      0.0000       90.00
         2        95.1735    -95.1735      0.0000      0.0000       90.00
         3       -95.1735     95.1735      0.0000      0.0000       90.00
         4         0.0000      0.0000      0.0000      0.0000       90.00
 1/2[<0|r|b>*<b|rxdel|0> + (<0|rxdel|b>*<b|r|0>)*]
 Rotatory Strengths (R) in cgs (10**-40 erg-esu-cm/Gauss)
       state          XX          YY          ZZ     R(length)
         1         0.0000      0.0000      0.0000      0.0000
         2      -355.7096    355.7096      0.0000      0.0000
         3       355.7096   -355.7096      0.0000      0.0000
         4         0.0000      0.0000      0.0000      0.0000
  1/2[<0|del|b>*<b|r|0> + (<0|r|b>*<b|del|0>)*] (Au)
       state          X           Y           Z        Dip. S.   Osc.(frdel)
         1         0.0000      0.0000     -0.0590      0.0590      0.0393
         2        -0.0615     -0.2137      0.0000      0.2752      0.1834
         3        -0.2137     -0.0615      0.0000      0.2752      0.1834
         4         0.0000      0.0000     -0.2557      0.2557      0.1705

 Excitation energies and oscillator strengths:
 
 Excited state symmetry could not be determined.
 Excited State   1:      Singlet-?Sym    4.6202 eV  268.35 nm  f=0.0270  <S**2>=0.000
       2 ->  3         0.70676
 
 Excited state symmetry could not be determined.
 Excited State   2:      Singlet-?Sym    6.2211 eV  199.30 nm  f=0.2831  <S**2>=0.000
       2 ->  4         0.70514
 This state for optimization and/or second-order correction.
 Total Energy, E(CIS) =  -7.72485124227    
 Copying the excited state density for this state as the 1-particle RhoCI density.
 
 Excited state symmetry could not be determined.
 Excited State   3:      Singlet-?Sym    6.2211 eV  199.30 nm  f=0.2831  <S**2>=0.000
       2 ->  5         0.70514
 
 Excited state symmetry could not be determined.
 Excited State   4:      Singlet-?Sym   17.8385 eV   69.50 nm  f=0.3613  <S**2>=0.000
       2 ->  6         0.70676
 SavETr:  write IOETrn=   770 NScale= 10 NData=  16 NLR=1 NState=    4 LETran=      82.
 The selected state is a singlet
 CISAX will form     1 AO SS matrices at one time.
 NMat=     1 NSing=     1 JSym2X= 0.
 Leave Link  914 at Thu Mar 10 10:32:29 2016, MaxMem=   134217728 cpu:         0.1
 (Enter /home/acad/unamur-ucpts/pbeaujea/gaussian/g09/l1002.exe)
 Minotr:  Closed shell wavefunction.
          Computing CIS/TD-HF/TD-KS derivatives.
          Using Z-Vector for PSCF gradient.
          Skipping F1 and S1 gradient terms here.
          Frozen-core window.
          Direct CPHF calculation.
          Differentiating once with respect to electric field.
                with respect to dipole field.
          Electric field/nuclear overlap derivatives assumed to be zero.
          Requested convergence is 1.0D-10 RMS, and 1.0D-09 maximum.
          NewPWx=F KeepS1=T KeepF1=T KeepIn=T MapXYZ=F SortEE=F KeepMc=T.
          MDV=     134217703 using IRadAn=       0.
 Keep R1 ints in memory in canonical form, NReq=807818.
 FoFCou: FMM=F IPFlag=           0 FMFlag=           0 FMFlg1=           0
         NFxFlg=           0 DoJE=F BraDBF=F KetDBF=F FulRan=T
         wScrn=  0.000000 ICntrl=     600 IOpCl=  0 I1Cent=           0 NGrid=           0
         NMat0=    1 NMatS0=     21 NMatT0=    0 NMatD0=    1 NMtDS0=    0 NMtDT0=    0
 Symmetry not used in FoFCou.
          Solving linear equations separately, MaxMat=       0.
          There are     1 degrees of freedom in the 1st order CPHF.  IDoFFX=0 NUNeed=     1.
 LinEq1:  Iter=  0 NonCon=     1 RMS=1.88D-01 Max=3.79D-01 NDo=     1
 AX will form     1 AO Fock derivatives at one time.
 LinEq1:  Iter=  1 NonCon=     1 RMS=3.14D-02 Max=6.35D-02 NDo=     1
 LinEq1:  Iter=  2 NonCon=     1 RMS=6.60D-05 Max=1.48D-04 NDo=     1
 LinEq1:  Iter=  3 NonCon=     1 RMS=7.02D-07 Max=1.57D-06 NDo=     1
 LinEq1:  Iter=  4 NonCon=     0 RMS=1.31D-18 Max=3.64D-18 NDo=     1
 Linear equations converged to 1.000D-10 1.000D-09 after     4 iterations.
 End of Minotr F.D. properties file   721 does not exist.
 End of Minotr F.D. properties file   722 does not exist.
 End of Minotr F.D. properties file   788 does not exist.
 Leave Link 1002 at Thu Mar 10 10:32:30 2016, MaxMem=   134217728 cpu:         0.1
 (Enter /home/acad/unamur-ucpts/pbeaujea/gaussian/g09/l601.exe)
 Copying SCF densities to generalized density rwf, IOpCl= 0 IROHF=0.

 **********************************************************************

            Population analysis using the SCF density.

 **********************************************************************

 Alpha  occ. eigenvalues --   -2.38521  -0.29364
 Alpha virt. eigenvalues --    0.07941   0.16259   0.16259   0.57250
          Condensed to atoms (all electrons):
               1          2
     1  Li   2.610932   0.391299
     2  H    0.391299   0.606469
 Mulliken charges:
               1
     1  Li  -0.002231
     2  H    0.002231
 Sum of Mulliken charges =   0.00000
 Mulliken charges with hydrogens summed into heavy atoms:
               1
     1  Li   0.000000
 Electronic spatial extent (au):  <R**2>=             21.5932
 Charge=              0.0000 electrons
 Dipole moment (field-independent basis, Debye):
    X=              0.0000    Y=              0.0000    Z=              4.8879  Tot=              4.8879
 Quadrupole moment (field-independent basis, Debye-Ang):
   XX=             -5.1922   YY=             -5.1922   ZZ=             -8.4065
   XY=              0.0000   XZ=              0.0000   YZ=              0.0000
 Traceless Quadrupole moment (field-independent basis, Debye-Ang):
   XX=              1.0714   YY=              1.0714   ZZ=             -2.1429
   XY=              0.0000   XZ=              0.0000   YZ=              0.0000
 Octapole moment (field-independent basis, Debye-Ang**2):
  XXX=              0.0000  YYY=              0.0000  ZZZ=             16.5202  XYY=              0.0000
  XXY=              0.0000  XXZ=              5.0826  XZZ=              0.0000  YZZ=              0.0000
  YYZ=              5.0826  XYZ=              0.0000
 Hexadecapole moment (field-independent basis, Debye-Ang**3):
 XXXX=            -12.3945 YYYY=            -12.3945 ZZZZ=            -39.9778 XXXY=              0.0000
 XXXZ=              0.0000 YYYX=              0.0000 YYYZ=              0.0000 ZZZX=              0.0000
 ZZZY=              0.0000 XXYY=             -4.1315 XXZZ=             -8.6305 YYZZ=             -8.6305
 XXYZ=              0.0000 YYXZ=              0.0000 ZZXY=              0.0000
 N-N= 1.053735654958D+00 E-N=-2.076440793517D+01  KE= 8.107712158381D+00

 **********************************************************************

            Population analysis using the CI one-particle density.

 **********************************************************************

          Condensed to atoms (all electrons):
               1          2
     1  Li   3.304450   0.196142
     2  H    0.196142   0.303265
 Mulliken charges:
               1
     1  Li  -0.500593
     2  H    0.500593
 Sum of Mulliken charges =   0.00000
 Mulliken charges with hydrogens summed into heavy atoms:
               1
     1  Li   0.000000
 Electronic spatial extent (au):  <R**2>=             22.9688
 Charge=              0.0000 electrons
 Dipole moment (field-independent basis, Debye):
    X=              0.0000    Y=              0.0000    Z=             -1.1787  Tot=              1.1787
 Quadrupole moment (field-independent basis, Debye-Ang):
   XX=             -7.3531   YY=            -10.8394   ZZ=             -2.4487
   XY=              2.6267   XZ=              0.0000   YZ=              0.0000
 Traceless Quadrupole moment (field-independent basis, Debye-Ang):
   XX=             -0.4727   YY=             -3.9590   ZZ=              4.4317
   XY=              2.6267   XZ=              0.0000   YZ=              0.0000
 Octapole moment (field-independent basis, Debye-Ang**2):
  XXX=              0.0000  YYY=              0.0000  ZZZ=              0.3216  XYY=              0.0000
  XXY=              0.0000  XXZ=              2.3118  XZZ=              0.0000  YZZ=              0.0000
  YYZ=              2.1448  XYZ=              0.1259
 Hexadecapole moment (field-independent basis, Debye-Ang**3):
 XXXX=            -21.9230 YYYY=            -40.2305 ZZZZ=            -17.4935 XXXY=              6.8967
 XXXZ=              0.0000 YYYX=              6.8967 YYYZ=              0.0000 ZZZX=              0.0000
 ZZZY=              0.0000 XXYY=            -10.3589 XXZZ=             -8.3353 YYZZ=            -11.3946
 XXYZ=              0.0000 YYXZ=              0.0000 ZZXY=              2.3049
 N-N= 1.053735654958D+00 E-N=-2.020938615670D+01  KE= 7.940174140435D+00

 **********************************************************************

            Population analysis using the CI density.

 **********************************************************************

          Condensed to atoms (all electrons):
               1          2
     1  Li   2.979474   0.206711
     2  H    0.206711   0.607104
 Mulliken charges:
               1
     1  Li  -0.186185
     2  H    0.186185
 Sum of Mulliken charges =   0.00000
 Mulliken charges with hydrogens summed into heavy atoms:
               1
     1  Li   0.000000
 Electronic spatial extent (au):  <R**2>=             22.2183
 Charge=              0.0000 electrons
 Dipole moment (field-independent basis, Debye):
    X=              0.0000    Y=              0.0000    Z=              0.0602  Tot=              0.0602
 Quadrupole moment (field-independent basis, Debye-Ang):
   XX=             -5.7989   YY=             -9.2852   ZZ=             -4.5475
   XY=              2.6267   XZ=              0.0000   YZ=              0.0000
 Traceless Quadrupole moment (field-independent basis, Debye-Ang):
   XX=              0.7449   YY=             -2.7414   ZZ=              1.9964
   XY=              2.6267   XZ=              0.0000   YZ=              0.0000
 Octapole moment (field-independent basis, Debye-Ang**2):
  XXX=              0.0000  YYY=              0.0000  ZZZ=              3.5497  XYY=              0.0000
  XXY=              0.0000  XXZ=              1.7102  XZZ=              0.0000  YZZ=              0.0000
  YYZ=              1.5432  XYZ=              0.1259
 Hexadecapole moment (field-independent basis, Debye-Ang**3):
 XXXX=            -15.2807 YYYY=            -33.5882 ZZZZ=            -23.2164 XXXY=              6.8967
 XXXZ=              0.0000 YYYX=              6.8967 YYYZ=              0.0000 ZZZX=              0.0000
 ZZZY=              0.0000 XXYY=             -8.1448 XXZZ=             -6.9655 YYZZ=            -10.0248
 XXYZ=              0.0000 YYXZ=              0.0000 ZZXY=              2.3049
 N-N= 1.053735654958D+00 E-N=-2.034755008245D+01  KE= 8.029008293119D+00
 No NMR shielding tensors so no spin-rotation constants.
 Leave Link  601 at Thu Mar 10 10:32:30 2016, MaxMem=   134217728 cpu:         0.1
 (Enter /home/acad/unamur-ucpts/pbeaujea/gaussian/g09/l9999.exe)
 1\1\GINC-NODE0852\SP\RCIS-FC\Gen\H1Li1\PBEAUJEA\10-Mar-2016\0\\#p CIS=
 (Read,Conver=4,Root=2,NSTATE=4) gen Density=all Guess=Read Geom=Checkp
 oint nosym\\Excited state 2/4 of LiH_mini (with gen)\\0,1\Li,0,0.,0.,0
 .04791742\H,0,0.,0.,-1.45865742\\Version=AM64L-G09RevD.01\HF=-7.953470
 7\MP2=-7.9654874\RMSD=0.000e+00\Dipole=0.,0.,0.0236837\Quadrupole=0.55
 38489,-2.0381298,1.4842809,1.9528773,0.,0.\PG=C*V [C*(H1Li1)]\\@


 A FOOL CAN ASK MORE QUESTIONS THAN
 A WISE MAN CAN ANSWER.
 Job cpu time:       0 days  0 hours  0 minutes  1.1 seconds.
 File lengths (MBytes):  RWF=     79 Int=      0 D2E=      0 Chk=      2 Scr=      2
 Normal termination of Gaussian 09 at Thu Mar 10 10:32:30 2016.
