Excited state 2/4 of LiH_mini (with gen)                                
SP        RCIS-FC                                                     Gen                 
Number of atoms                            I                2
Info1-9                                    I   N=           9
          38          37           0           0           0         110
           1         101           1
Charge                                     I                0
Multiplicity                               I                1
Number of electrons                        I                4
Number of alpha electrons                  I                2
Number of beta electrons                   I                2
Number of basis functions                  I                6
Number of independent functions            I                6
Number of point charges in /Mol/           I                0
Number of translation vectors              I                0
Atomic numbers                             I   N=           2
           3           1
Nuclear charges                            R   N=           2
  3.00000000E+00  1.00000000E+00
Current cartesian coordinates              R   N=           6
  0.00000000E+00  0.00000000E+00  9.05508008E-02  0.00000000E+00  0.00000000E+00
 -2.75646305E+00
Force Field                                I                0
Int Atom Types                             I   N=           2
           0           0
MM charges                                 R   N=           2
  0.00000000E+00  0.00000000E+00
Integer atomic weights                     I   N=           2
           7           1
Real atomic weights                        R   N=           2
  7.01600450E+00  1.00782504E+00
Atom fragment info                         I   N=           2
           0           0
Atom residue num                           I   N=           2
           0           0
Nuclear spins                              I   N=           2
           3           1
Nuclear ZEff                               R   N=           2
 -1.35000000E+00 -1.00000000E+00
Nuclear ZNuc                               R   N=           2
  3.00000000E+00  1.00000000E+00
Nuclear QMom                               R   N=           2
 -4.01000000E+00  0.00000000E+00
Nuclear GFac                               R   N=           2
  3.25642400E+00  2.79284600E+00
MicOpt                                     I   N=           2
          -1          -1
Number of contracted shells                I                3
Number of primitive shells                 I               18
Pure/Cartesian d shells                    I                0
Pure/Cartesian f shells                    I                0
Highest angular momentum                   I                1
Largest degree of contraction              I                6
Shell types                                I   N=           3
           0          -1           0
Number of primitives per shell             I   N=           3
           6           6           6
Shell to atom map                          I   N=           3
           1           1           2
Primitive exponents                        R   N=          18
  1.67175846E+02  3.06515084E+01  8.57518748E+00  2.94580834E+00  1.14394358E+00
  4.71139139E-01  6.59756398E+00  1.30583009E+00  4.05851019E-01  1.56145516E-01
  6.78141039E-02  3.10841655E-02  3.55232212E+01  6.51314372E+00  1.82214290E+00
  6.25955266E-01  2.43076747E-01  1.00112428E-01
Contraction coefficients                   R   N=          18
  9.16359628E-03  4.93614929E-02  1.68538305E-01  3.70562800E-01  4.16491530E-01
  1.30334084E-01 -1.32527881E-02 -4.69917101E-02 -3.37853715E-02  2.50241786E-01
  5.95117253E-01  2.40706176E-01  9.16359628E-03  4.93614929E-02  1.68538305E-01
  3.70562800E-01  4.16491530E-01  1.30334084E-01
P(S=P) Contraction coefficients            R   N=          18
  0.00000000E+00  0.00000000E+00  0.00000000E+00  0.00000000E+00  0.00000000E+00
  0.00000000E+00  3.75969660E-03  3.76793698E-02  1.73896744E-01  4.18036435E-01
  4.25859548E-01  1.01708296E-01  0.00000000E+00  0.00000000E+00  0.00000000E+00
  0.00000000E+00  0.00000000E+00  0.00000000E+00
Coordinates of each shell                  R   N=           9
  0.00000000E+00  0.00000000E+00  9.05508008E-02  0.00000000E+00  0.00000000E+00
  9.05508008E-02  0.00000000E+00  0.00000000E+00 -2.75646305E+00
Constraint Structure                       R   N=           6
  0.00000000E+00  0.00000000E+00  9.05508008E-02  0.00000000E+00  0.00000000E+00
 -2.75646305E+00
Num ILSW                                   I              100
ILSW                                       I   N=         100
           0           0           0           0           2           0
           0           0           0           0           0          -1
           0           0           0           0           0           0
           0           0           0           0           0           0
           1           1           0           0           0           0
           0           0      100000           0          -1           0
           0           0           0           0           0           0
           0           0           0           1           1           0
           0           0           1           0           0           0
           0           0           4          41           0           0
           0           0           0           0           0           0
           0           0           0           2           0           0
           0           0           0           0           0           0
           0           0           0           0           0           0
           0           0           0           0           0           0
           0           0           0           0           0           0
           0           0           0           0
Num RLSW                                   I               41
RLSW                                       R   N=          41
  1.00000000E+00  1.00000000E+00  1.00000000E+00  1.00000000E+00  1.00000000E+00
  0.00000000E+00  0.00000000E+00  1.00000000E+00  0.00000000E+00  0.00000000E+00
  0.00000000E+00  0.00000000E+00  1.00000000E+00  0.00000000E+00  0.00000000E+00
  0.00000000E+00  0.00000000E+00  1.00000000E+00  0.00000000E+00  0.00000000E+00
  0.00000000E+00  0.00000000E+00  1.00000000E+00  0.00000000E+00  0.00000000E+00
  0.00000000E+00  0.00000000E+00  1.00000000E+00  0.00000000E+00  0.00000000E+00
  0.00000000E+00  0.00000000E+00  1.00000000E+00  0.00000000E+00  0.00000000E+00
  0.00000000E+00  0.00000000E+00  0.00000000E+00  1.00000000E+00  1.00000000E+00
  0.00000000E+00
MxBond                                     I                1
NBond                                      I   N=           2
           1           1
IBond                                      I   N=           2
           2           1
RBond                                      R   N=           2
  2.00000000E+00  2.00000000E+00
Virial Ratio                               R      1.980975956454703E+00
SCF Energy                                 R     -7.953470689227011E+00
MP2 Energy                                 R     -7.965487391566069E+00
CIS Energy                                 R     -7.724851242266194E+00
Total Energy                               R     -7.724851242266194E+00
Post-SCF wavefunction norm                 R      1.000000000000000E+00
External E-field                           R   N=          35
  0.00000000E+00  0.00000000E+00  0.00000000E+00  0.00000000E+00  0.00000000E+00
  0.00000000E+00  0.00000000E+00  0.00000000E+00  0.00000000E+00  0.00000000E+00
  0.00000000E+00  0.00000000E+00  0.00000000E+00  0.00000000E+00  0.00000000E+00
  0.00000000E+00  0.00000000E+00  0.00000000E+00  0.00000000E+00  0.00000000E+00
  0.00000000E+00  0.00000000E+00  0.00000000E+00  0.00000000E+00  0.00000000E+00
  0.00000000E+00  0.00000000E+00  0.00000000E+00  0.00000000E+00  0.00000000E+00
  0.00000000E+00  0.00000000E+00  0.00000000E+00  0.00000000E+00  0.00000000E+00
IOpCl                                      I                0
IROHF                                      I                0
Alpha Orbital Energies                     R   N=           6
 -2.38521351E+00 -2.93644946E-01  7.94068543E-02  1.62593698E-01  1.62593698E-01
  5.72496518E-01
Alpha MO coefficients                      R   N=          36
  9.93727521E-01  2.32800066E-02  1.16711940E-16  5.77996043E-16  6.37252874E-03
  5.51048300E-03 -1.64879607E-01  4.37804791E-01 -4.77187602E-16 -1.78041889E-16
 -3.48794233E-01  5.50639946E-01 -1.97984676E-01  7.98838200E-01  1.43742190E-15
  6.67526746E-16  6.16680987E-01 -1.24353389E-01 -4.09242145E-16 -6.34984657E-16
 -4.05854082E-01  9.13937889E-01  7.82255150E-16  9.53681370E-16 -1.51595361E-16
 -6.22500560E-16  9.13937889E-01  4.05854082E-01 -1.73255595E-15 -2.31104278E-16
  7.39714855E-02 -7.48016019E-01  8.43369410E-16 -4.86923938E-16  1.00467858E+00
  1.23212215E+00
Total SCF Density                          R   N=          21
  2.02935934E+00 -9.81021970E-02  3.84429988E-01  3.89316742E-16 -4.12395928E-16
  4.82659369E-31  1.20745210E-15 -1.28983681E-16  3.04836843E-31  7.31556680E-31
  1.27683226E-01 -3.05110868E-01  3.34368068E-16  1.31566561E-16  2.43396052E-01
 -1.70626758E-01  4.82402181E-01 -5.24230832E-16 -1.89703877E-16 -3.84049844E-01
  6.06469430E-01
Total CI Rho(1) Density                    R   N=          21
  2.00217406E+00 -2.59171153E-02  1.92756953E-01  4.98247575E-16  7.39807416E-17
  2.23526155E-01  8.28430398E-16 -5.68169035E-16 -4.16607985E-01  7.76473845E-01
  7.01741703E-02 -1.52407081E-01 -2.61882308E-16  8.70546505E-16  1.21738635E-01
 -7.98374603E-02  2.41329375E-01 -7.19243608E-16  7.61527176E-16 -1.91989806E-01
  3.03265080E-01
Total CI Density                           R   N=          21
  1.97306753E+00  8.31925926E-02 -1.63246455E-01  5.48984162E-16  1.65073129E-17
  2.23526155E-01  6.96410327E-16 -2.00850625E-16 -4.16607985E-01  7.76473845E-01
  3.14494732E-02 -1.62792950E-02 -5.63330918E-17  6.33452383E-16  1.30428912E-01
 -8.56816138E-02  1.37988564E-01 -1.16885706E-15  1.07574553E-15 -2.95326163E-01
  6.07103712E-01
Mulliken Charges                           R   N=           2
 -1.86185141E-01  1.86185141E-01
ONIOM Charges                              I   N=          16
           0           0           0           0           0           0
           0           0           0           0           0           0
           0           0           0           0
ONIOM Multiplicities                       I   N=          16
           1           0           0           0           0           0
           0           0           0           0           0           0
           0           0           0           0
Atom Layers                                I   N=           2
           1           1
Atom Modifiers                             I   N=           2
           0           0
Force Field                                I                0
Int Atom Modified Types                    I   N=           2
           0           0
Link Atoms                                 I   N=           2
           0           0
Atom Modified MM Charges                   R   N=           2
  0.00000000E+00  0.00000000E+00
Link Distances                             R   N=           8
  0.00000000E+00  0.00000000E+00  0.00000000E+00  0.00000000E+00  0.00000000E+00
  0.00000000E+00  0.00000000E+00  0.00000000E+00
Cartesian Gradient                         R   N=           6
  0.00000000E+00  0.00000000E+00  0.00000000E+00  0.00000000E+00  0.00000000E+00
  0.00000000E+00
Dipole Moment                              R   N=           3
  6.16563358E-16 -2.71546549E-16  2.36836846E-02
Quadrupole Moment                          R   N=           6
  5.53848901E-01 -2.03812978E+00  1.48428088E+00  1.95287735E+00 -1.19140454E-15
 -1.60302921E-15
QEq coupling tensors                       R   N=          12
 -2.89233801E-02 -8.52042352E-02  8.41649108E-02  5.16415914E-17 -4.75278054E-17
 -5.52415307E-02  2.57496267E-02 -1.04966459E-02  3.96814194E-02 -6.16829278E-17
  5.67692457E-17 -6.54310461E-02
ETran NETS                                 I               20
ETran NETV                                 I               64
ETran scalars                              I   N=          20
           4          16           1          10           2           0
           0           0           0           0           0           0
           0           0           0           0           0           0
           0           0
ETran spin                                 I   N=           4
           0           0           0           0
ETran sym                                  I   N=           4
           0           0           0           0
ETran state values                         R   N=          64
 -7.78368256E+00 -1.09219972E-15 -5.51923383E-16 -4.88643658E-01  3.57126824E-16
  1.54638154E-16  1.20659955E-01  4.00894509E-16 -8.22896128E-16 -7.15062522E-32
  4.60006533E-02  4.60006533E-02 -1.47279948E-02  1.58775775E-47 -2.07274764E-16
 -9.36765915E-17 -7.72485124E+00  6.44377980E-01 -1.20099150E+00  3.88791080E-16
 -9.54488111E-02  1.77897467E-01 -3.34025987E-16  7.80609738E-01  4.18827051E-01
 -7.13700725E-16 -4.12641605E-16 -4.12641605E-16  8.96205264E-16  1.58473396E-31
  7.29126122E-02 -1.35894506E-01 -7.72485124E+00 -1.20099150E+00 -6.44377980E-01
  2.00378296E-15  1.77897467E-01  9.54488111E-02 -1.58916860E-16  4.18827051E-01
 -7.80609738E-01 -9.71860003E-17  2.81400672E-16  2.81400672E-16 -3.23926545E-16
  2.15796270E-32 -1.35894506E-01 -7.29126122E-02 -7.29791780E+00 -1.71770805E-15
  4.56711651E-16  9.09282984E-01  2.14956598E-16 -8.23808076E-17 -2.81201024E-01
 -5.35376115E-16 -4.77161517E-16  5.43465201E-31 -6.11876205E-01 -6.11876205E-01
  9.52248955E-01 -1.20673516E-46 -3.02835433E-16  1.12056341E-17
