----- GAMESS execution script 'rungms' -----
This job is running on host chim13-cptrx04.chimie.fundp.ac.be
under operating system Linux at Wed Dec 7 11:50:30 CET 2016
Available scratch disk space (Kbyte units) at beginning of the job is
Filesystem            1K-blocks      Used Available Use% Mounted on
/dev/mapper/vg00-home 142736136 110046260  25416200  82% /home
GAMESS temporary binary files will be written to .
GAMESS supplementary output files will be written to .
Copying input file H2O_vib_6.inp to your run's scratch directory...

 Distributed Data Interface kickoff program.
 Initiating 1 compute processes on 1 nodes to run the following command:
 /opt/gamess/gamess.01.x H2O_vib_6 

          ******************************************************
          *         GAMESS VERSION =  5 DEC 2014 (R1)          *
          *             FROM IOWA STATE UNIVERSITY             *
          * M.W.SCHMIDT, K.K.BALDRIDGE, J.A.BOATZ, S.T.ELBERT, *
          *   M.S.GORDON, J.H.JENSEN, S.KOSEKI, N.MATSUNAGA,   *
          *          K.A.NGUYEN, S.J.SU, T.L.WINDUS,           *
          *       TOGETHER WITH M.DUPUIS, J.A.MONTGOMERY       *
          *         J.COMPUT.CHEM.  14, 1347-1363(1993)        *
          **************** 64 BIT LINUX VERSION ****************

  SINCE 1993, STUDENTS AND POSTDOCS WORKING AT IOWA STATE UNIVERSITY
  AND ALSO IN THEIR VARIOUS JOBS AFTER LEAVING ISU HAVE MADE IMPORTANT
  CONTRIBUTIONS TO THE CODE:
     IVANA ADAMOVIC, CHRISTINE AIKENS, YURI ALEXEEV, POOJA ARORA,
     ANDREY ASADCHEV, ROB BELL, PRADIPTA BANDYOPADHYAY, JONATHAN BENTZ,
     BRETT BODE, KURT BRORSEN, CALEB CARLIN, GALINA CHABAN, WEI CHEN,
     CHEOL HO CHOI, PAUL DAY, ALBERT DEFUSCO, NUWAN DESILVA, TIM DUDLEY,
     DMITRI FEDOROV, GRAHAM FLETCHER, MARK FREITAG, KURT GLAESEMANN,
     DAN KEMP, GRANT MERRILL, NORIYUKI MINEZAWA, JONATHAN MULLIN,
     TAKESHI NAGATA, SEAN NEDD, HEATHER NETZLOFF, BOSILJKA NJEGIC, RYAN OLSON,
     MIKE PAK, SPENCER PRUITT, LUKE ROSKOP, JIM SHOEMAKER, LYUDMILA SLIPCHENKO,
     TONY SMITH, SAROM SOK, JIE SONG, TETSUYA TAKETSUGU, SIMON WEBB,
     PENG XU, SOOHAENG YOO, FEDERICO ZAHARIEV

  ADDITIONAL CODE HAS BEEN PROVIDED BY COLLABORATORS IN OTHER GROUPS:
     IOWA STATE UNIVERSITY:
          JOE IVANIC, AARON WEST, LAIMUTIS BYTAUTAS, KLAUS RUEDENBERG
     UNIVERSITY OF TOKYO: KIMIHIKO HIRAO, TAKAHITO NAKAJIMA,
          TAKAO TSUNEDA, MUNEAKI KAMIYA, SUSUMU YANAGISAWA,
          KIYOSHI YAGI, MAHITO CHIBA, SEIKEN TOKURA, NAOAKI KAWAKAMI
     UNIVERSITY OF AARHUS: FRANK JENSEN
     UNIVERSITY OF IOWA: VISVALDAS KAIRYS, HUI LI
     NATIONAL INST. OF STANDARDS AND TECHNOLOGY: WALT STEVENS, DAVID GARMER
     UNIVERSITY OF PISA: BENEDETTA MENNUCCI, JACOPO TOMASI
     UNIVERSITY OF MEMPHIS: HENRY KURTZ, PRAKASHAN KORAMBATH
     UNIVERSITY OF ALBERTA: TOBY ZENG, MARIUSZ KLOBUKOWSKI
     UNIVERSITY OF NEW ENGLAND: MARK SPACKMAN
     MIE UNIVERSITY: HIROAKI UMEDA
     NAT. INST. OF ADVANCED INDUSTRIAL SCIENCE AND TECHNOLOGY: KAZUO KITAURA
     MICHIGAN STATE UNIVERSITY:
          KAROL KOWALSKI, MARTA WLOCH, JEFFREY GOUR, JESSE LUTZ,
          WEI LI, PIOTR PIECUCH
     UNIVERSITY OF SILESIA: MONIKA MUSIAL, STANISLAW KUCHARSKI
     FACULTES UNIVERSITAIRES NOTRE-DAME DE LA PAIX:
          OLIVIER QUINET, BENOIT CHAMPAGNE
     UNIVERSITY OF CALIFORNIA - SANTA BARBARA: BERNARD KIRTMAN
     INSTITUTE FOR MOLECULAR SCIENCE:
          KAZUYA ISHIMURA, MICHIO KATOUDA, AND SHIGERU NAGASE
     UNIVERSITY OF NOTRE DAME: ANNA POMOGAEVA, DAN CHIPMAN
     KYUSHU UNIVERSITY:
          HARUYUKI NAKANO,
          FENG LONG GU, JACEK KORCHOWIEC, MARCIN MAKOWSKI, AND YURIKO AOKI,
          HIROTOSHI MORI AND EISAKU MIYOSHI
     PENNSYLVANIA STATE UNIVERSITY:
          TZVETELIN IORDANOV, CHET SWALINA, JONATHAN SKONE,
          SHARON HAMMES-SCHIFFER
     WASEDA UNIVERSITY:
          MASATO KOBAYASHI, TOMOKO AKAMA, TSUGUKI TOUMA,
          TAKESHI YOSHIKAWA, YASUHIRO IKABATA, HIROMI NAKAI
     NANJING UNIVERSITY: SHUHUA LI
     UNIVERSITY OF NEBRASKA:
          PEIFENG SU, DEJUN SI, NANDUN THELLAMUREGE, YALI WANG, HUI LI
     UNIVERSITY OF ZURICH: ROBERTO PEVERATI, KIM BALDRIDGE
     N. COPERNICUS UNIVERSITY AND JACKSON STATE UNIVERSITY:
          MARIA BARYSZ
     UNIVERSITY OF COPENHAGEN: CASPER STEINMANN
     TOKYO INSTITUTE OF TECHNOLOGY: HIROYA NAKATA
     NAGOYA UNIVERSITY: YOSHIO NISHIMOTO, STEPHAN IRLE

 EXECUTION OF GAMESS BEGUN Wed Dec  7 11:50:30 2016

            ECHO OF THE FIRST FEW INPUT CARDS -
 INPUT CARD>!   File created by MacMolPlt 7.5                                               
 INPUT CARD> $CONTRL SCFTYP=RHF RUNTYP=HESSIAN EXETYP=RUN MAXIT=200 MULT=1 ISPHER=1 $END    
 INPUT CARD> $SYSTEM TIMLIM=525600 MEMORY=64000000 $END                                     
 INPUT CARD> $BASIS GBASIS=ACCT $END                                                        
 INPUT CARD> $FORCE TEMP(1)=293.15,400.0,800.0,1200.0,1600.0,2000.0 SCLFAC=0.895 $END       
 INPUT CARD> $DATA                                                                          
 INPUT CARD> H2O                                                                            
 INPUT CARD>C1                                                                              
 INPUT CARD>OXYGEN      8.0     -1.345942786         0.453062912        -0.001873186        
 INPUT CARD>HYDROGEN    1.0     -0.399192604         0.421346342         0.006567351        
 INPUT CARD>HYDROGEN    1.0     -1.630574610        -0.420099254         0.230475835        
 INPUT CARD> $END                                                                           
 INPUT CARD>                                                                                
 INPUT CARD>                                                                                
   64000000 WORDS OF MEMORY AVAILABLE

     BASIS OPTIONS
     -------------
     GBASIS=ACCT         IGAUSS=       0      POLAR=NONE    
     NDFUNC=       0     NFFUNC=       0     DIFFSP=       F
     NPFUNC=       0      DIFFS=       F     BASNAM=        


     RUN TITLE
     ---------
  H2O                                                                            

 THE POINT GROUP OF THE MOLECULE IS C1      
 THE ORDER OF THE PRINCIPAL AXIS IS     0

 ATOM      ATOMIC                      COORDINATES (BOHR)
           CHARGE         X                   Y                   Z
 OXYGEN      8.0    -2.5434630607        0.8561647589       -0.0035398083
 HYDROGEN    1.0    -0.7543646379        0.7962291323        0.0124104939
 HYDROGEN    1.0    -3.0813392154       -0.7938724777        0.4355361749

          INTERNUCLEAR DISTANCES (ANGS.)
          ------------------------------

                1 OXYG       2 HYDR       3 HYDR  

   1 OXYG    0.0000000    0.9473189 *  0.9473191 *
   2 HYDR    0.9473189 *  0.0000000    1.5081337 *
   3 HYDR    0.9473191 *  1.5081337 *  0.0000000  

  * ... LESS THAN  3.000


     ATOMIC BASIS SET
     ----------------
 THE CONTRACTED PRIMITIVE FUNCTIONS HAVE BEEN UNNORMALIZED
 THE CONTRACTED BASIS FUNCTIONS ARE NOW NORMALIZED TO UNITY

  SHELL TYPE  PRIMITIVE        EXPONENT          CONTRACTION COEFFICIENT(S)

 OXYGEN    

      1   S       1         15330.0000000    0.000520198307
      1   S       2          2299.0000000    0.004023344781
      1   S       3           522.4000000    0.020729083329
      1   S       4           147.3000000    0.081082327080
      1   S       5            47.5500000    0.236226352118
      1   S       6            16.7600000    0.443518209420
      1   S       7             6.2070000    0.358670588689
      1   S       8             0.6882000   -0.008349797237

      2   S       9         15330.0000000   -0.000197236012
      2   S      10          2299.0000000   -0.001535010700
      2   S      11           522.4000000   -0.007951183914
      2   S      12           147.3000000   -0.032113452892
      2   S      13            47.5500000   -0.100269643049
      2   S      14            16.7600000   -0.234047111838
      2   S      15             6.2070000   -0.301410927756
      2   S      16             0.6882000    1.034919649508

      3   S      17             1.7520000    1.000000000000

      4   S      18             0.2384000    1.000000000000

      5   P      19            34.4600000    0.041163489568
      5   P      20             7.7490000    0.257762835858
      5   P      21             2.2800000    0.802419274427

      6   P      22             0.7156000    1.000000000000

      7   P      23             0.2140000    1.000000000000

      8   D      24             2.3140000    1.000000000000

      9   D      25             0.6450000    1.000000000000

     10   F      26             1.4280000    1.000000000000

     11   S      27             0.0737600    1.000000000000

     12   P      28             0.0597400    1.000000000000

     13   D      29             0.2140000    1.000000000000

     14   F      30             0.5000000    1.000000000000

 HYDROGEN  

     15   S      31            33.8700000    0.025494863235
     15   S      32             5.0950000    0.190362765893
     15   S      33             1.1590000    0.852162022245

     16   S      34             0.3258000    1.000000000000

     17   S      35             0.1027000    1.000000000000

     18   P      36             1.4070000    1.000000000000

     19   P      37             0.3880000    1.000000000000

     20   D      38             1.0570000    1.000000000000

     21   S      39             0.0252600    1.000000000000

     22   P      40             0.1020000    1.000000000000

     23   D      41             0.2470000    1.000000000000

 HYDROGEN  

     24   S      42            33.8700000    0.025494863235
     24   S      43             5.0950000    0.190362765893
     24   S      44             1.1590000    0.852162022245

     25   S      45             0.3258000    1.000000000000

     26   S      46             0.1027000    1.000000000000

     27   P      47             1.4070000    1.000000000000

     28   P      48             0.3880000    1.000000000000

     29   D      49             1.0570000    1.000000000000

     30   S      50             0.0252600    1.000000000000

     31   P      51             0.1020000    1.000000000000

     32   D      52             0.2470000    1.000000000000

 TOTAL NUMBER OF BASIS SET SHELLS             =   32
 NUMBER OF CARTESIAN GAUSSIAN BASIS FUNCTIONS =  105
 NOTE: THIS RUN WILL RESTRICT THE MO VARIATION SPACE TO SPHERICAL HARMONICS.
 THE NUMBER OF ORBITALS KEPT IN THE VARIATIONAL SPACE WILL BE PRINTED LATER.
 NUMBER OF ELECTRONS                          =   10
 CHARGE OF MOLECULE                           =    0
 SPIN MULTIPLICITY                            =    1
 NUMBER OF OCCUPIED ORBITALS (ALPHA)          =    5
 NUMBER OF OCCUPIED ORBITALS (BETA )          =    5
 TOTAL NUMBER OF ATOMS                        =    3
 THE NUCLEAR REPULSION ENERGY IS        9.2885641284

     $CONTRL OPTIONS
     ---------------
 SCFTYP=RHF          RUNTYP=HESSIAN      EXETYP=RUN     
 MPLEVL=       0     CITYP =NONE         CCTYP =NONE         VBTYP =NONE    
 DFTTYP=NONE         TDDFT =NONE    
 MULT  =       1     ICHARG=       0     NZVAR =       0     COORD =UNIQUE  
 PP    =NONE         RELWFN=NONE         LOCAL =NONE         NUMGRD=       F
 ISPHER=       1     NOSYM =       0     MAXIT =     200     UNITS =ANGS    
 PLTORB=       F     MOLPLT=       F     AIMPAC=       F     FRIEND=        
 NPRINT=       7     IREST =       0     GEOM  =INPUT   
 NORMF =       0     NORMP =       0     ITOL  =      20     ICUT  =       9
 INTTYP=BEST         GRDTYP=BEST         QMTTOL= 1.0E-06

     $SYSTEM OPTIONS
     ---------------
  REPLICATED MEMORY=    64000000 WORDS (ON EVERY NODE).
 DISTRIBUTED MEMDDI=           0 MILLION WORDS IN AGGREGATE,
 MEMDDI DISTRIBUTED OVER   1 PROCESSORS IS           0 WORDS/PROCESSOR.
 TOTAL MEMORY REQUESTED ON EACH PROCESSOR=    64000000 WORDS.
 TIMLIM=      525600.00 MINUTES, OR     365.0 DAYS.
 PARALL= F  BALTYP=  DLB     KDIAG=    0  COREFL= F
 MXSEQ2=     300 MXSEQ3=     150  mem10=         0

          ----------------
          PROPERTIES INPUT
          ----------------

     MOMENTS            FIELD           POTENTIAL          DENSITY
 IEMOM =       1   IEFLD =       0   IEPOT =       0   IEDEN =       0
 WHERE =COMASS     WHERE =NUCLEI     WHERE =NUCLEI     WHERE =NUCLEI  
 OUTPUT=BOTH       OUTPUT=BOTH       OUTPUT=BOTH       OUTPUT=BOTH    
 IEMINT=       0   IEFINT=       0                     IEDINT=       0
                                                       MORB  =       0
          EXTRAPOLATION IN EFFECT
          SOSCF IN EFFECT
 ORBITAL PRINTING OPTION: NPREO=     1   105     2     1

     -------------------------------
     INTEGRAL TRANSFORMATION OPTIONS
     -------------------------------
     NWORD  =            0
     CUTOFF = 1.0E-09     MPTRAN =       0
     DIRTRF =       F     AOINTS =DUP     

          ----------------------
          INTEGRAL INPUT OPTIONS
          ----------------------
 NOPK  =       1 NORDER=       0 SCHWRZ=       F

     ------------------------------------------
     THE POINT GROUP IS C1 , NAXIS= 0, ORDER= 1
     ------------------------------------------

 -- VARIATIONAL SPACE WILL BE RESTRICTED TO PURE SPHERICAL HARMONICS ONLY --
 AFTER EXCLUDING CONTAMINANT COMBINATIONS FROM THE CARTESIAN GAUSSIAN BASIS
 SET, THE NUMBER OF SPHERICAL HARMONICS KEPT IN THE VARIATION SPACE IS   92

     DIMENSIONS OF THE SYMMETRY SUBSPACES ARE
 A   =   92

 ..... DONE SETTING UP THE RUN .....
 STEP CPU TIME =     0.01 TOTAL CPU TIME =        0.1 (    0.0 MIN)
 TOTAL WALL CLOCK TIME=        0.1 SECONDS, CPU UTILIZATION IS  92.31%

     ---------------------------------
     HESSIAN MATRIX CONTROL PARAMETERS
     ---------------------------------
     METHOD=SEMINUM    NVIB  =       2   VIBSIZ= 0.01000
     RDHESS=       F   PURIFY=       F   PRTIFC=       F
     VIBANL=       T   DECOMP=       F   PROJCT=       F
     SCLFAC= 0.89500   PRTSCN=       F   NPRT  =       0
     PULCOR=       F   NPUN  =       0   REDOVB=       T
     THERMOCHEMISTRY WILL BE PRINTED FOR    6 TEMPERATURES:
      293.15000   400.00000   800.00000  1200.00000  1600.00000

     2000.00000
1   ATOM  0
                                        -------------------
   COORD  0                             NUCLEAR COORDINATES
                                        -------------------
     VIB  0

                       ATOM             X              Y              Z

                 1  OXYGEN          -2.543463       0.856165      -0.003540
                 2  HYDROGEN        -0.754365       0.796229       0.012410
                 3  HYDROGEN        -3.081339      -0.793872       0.435536

          ********************
          1 ELECTRON INTEGRALS
          ********************
 ...... END OF ONE-ELECTRON INTEGRALS ......
 STEP CPU TIME =     0.00 TOTAL CPU TIME =        0.1 (    0.0 MIN)
 TOTAL WALL CLOCK TIME=        0.1 SECONDS, CPU UTILIZATION IS  92.31%

          -------------
          GUESS OPTIONS
          -------------
          GUESS =HUCKEL            NORB  =       0          NORDER=       0
          MIX   =       F          PRTMO =       F          PUNMO =       F
          TOLZ  = 1.0E-08          TOLE  = 1.0E-05
          SYMDEN=       F          PURIFY=       F

 INITIAL GUESS ORBITALS GENERATED BY HUCKEL   ROUTINE.
 HUCKEL GUESS REQUIRES     81459 WORDS.

 STATISTICS FOR GENERATION OF SYMMETRY ORBITAL -Q- MATRIX
 NUMBER OF CARTESIAN ATOMIC ORBITALS=        105
 NUMBER OF SPHERICAL CONTAMINANTS DROPPED=    13
 NUMBER OF LINEARLY DEPENDENT MOS DROPPED=     0
 TOTAL NUMBER OF MOS IN VARIATION SPACE=      92

 SYMMETRIES FOR INITIAL GUESS ORBITALS FOLLOW.   BOTH SET(S).
     5 ORBITALS ARE OCCUPIED (    1 CORE ORBITALS).
     2=A        3=A        4=A        5=A        6=A        7=A        8=A   
     9=A       10=A       11=A       12=A       13=A       14=A       15=A   
 ...... END OF INITIAL ORBITAL SELECTION ......
 STEP CPU TIME =     0.01 TOTAL CPU TIME =        0.1 (    0.0 MIN)
 TOTAL WALL CLOCK TIME=        0.1 SECONDS, CPU UTILIZATION IS 100.00%

                    ----------------------
                    AO INTEGRAL TECHNOLOGY
                    ----------------------
     S,P,L SHELL ROTATED AXIS INTEGRALS, REPROGRAMMED BY
        KAZUYA ISHIMURA (IMS) AND JOSE SIERRA (SYNSTAR).
     S,P,D,L SHELL ROTATED AXIS INTEGRALS PROGRAMMED BY
        KAZUYA ISHIMURA (INSTITUTE FOR MOLECULAR SCIENCE).
     S,P,D,F,G SHELL TO TOTAL QUARTET ANGULAR MOMENTUM SUM 5,
        ERIC PROGRAM BY GRAHAM FLETCHER (ELORET AND NASA ADVANCED
        SUPERCOMPUTING DIVISION, AMES RESEARCH CENTER).
     S,P,D,F,G,L SHELL GENERAL RYS QUADRATURE PROGRAMMED BY
        MICHEL DUPUIS (PACIFIC NORTHWEST NATIONAL LABORATORY).

          --------------------
          2 ELECTRON INTEGRALS
          --------------------

 THE -PK- OPTION IS OFF, THE INTEGRALS ARE NOT IN SUPERMATRIX FORM.
 STORING   15000 INTEGRALS/RECORD ON DISK, USING 12 BYTES/INTEGRAL.
 TWO ELECTRON INTEGRAL EVALUATION REQUIRES   99628 WORDS OF MEMORY.
 II,JST,KST,LST =  1  1  1  1 NREC =         1 INTLOC =    1
 II,JST,KST,LST =  2  1  1  1 NREC =         1 INTLOC =    2
 II,JST,KST,LST =  3  1  1  1 NREC =         1 INTLOC =    7
 II,JST,KST,LST =  4  1  1  1 NREC =         1 INTLOC =   22
 II,JST,KST,LST =  5  1  1  1 NREC =         1 INTLOC =   56
 II,JST,KST,LST =  6  1  1  1 NREC =         1 INTLOC =  125
 II,JST,KST,LST =  7  1  1  1 NREC =         1 INTLOC =  329
 II,JST,KST,LST =  8  1  1  1 NREC =         1 INTLOC =  776
 II,JST,KST,LST =  9  1  1  1 NREC =         1 INTLOC = 2864
 II,JST,KST,LST = 10  1  1  1 NREC =         1 INTLOC = 7967
 II,JST,KST,LST = 11  1  1  1 NREC =         2 INTLOC =12194
 II,JST,KST,LST = 12  1  1  1 NREC =         3 INTLOC =  731
 II,JST,KST,LST = 13  1  1  1 NREC =         3 INTLOC =11855
 II,JST,KST,LST = 14  1  1  1 NREC =         5 INTLOC =12962
 II,JST,KST,LST = 15  1  1  1 NREC =        11 INTLOC = 7589
 II,JST,KST,LST = 16  1  1  1 NREC =        17 INTLOC = 5387
 II,JST,KST,LST = 17  1  1  1 NREC =        23 INTLOC = 7918
 II,JST,KST,LST = 18  1  1  1 NREC =        30 INTLOC =   33
 II,JST,KST,LST = 19  1  1  1 NREC =        51 INTLOC = 9071
 II,JST,KST,LST = 20  1  1  1 NREC =        76 INTLOC = 8659
 II,JST,KST,LST = 21  1  1  1 NREC =       137 INTLOC =12913
 II,JST,KST,LST = 22  1  1  1 NREC =       149 INTLOC = 2366
 II,JST,KST,LST = 23  1  1  1 NREC =       187 INTLOC = 7596
 II,JST,KST,LST = 24  1  1  1 NREC =       278 INTLOC =10825
 II,JST,KST,LST = 25  1  1  1 NREC =       296 INTLOC = 6585
 II,JST,KST,LST = 26  1  1  1 NREC =       314 INTLOC =12309
 II,JST,KST,LST = 27  1  1  1 NREC =       333 INTLOC =13235
 II,JST,KST,LST = 28  1  1  1 NREC =       395 INTLOC = 4638
 II,JST,KST,LST = 29  1  1  1 NREC =       463 INTLOC = 6582
 II,JST,KST,LST = 30  1  1  1 NREC =       621 INTLOC = 8395
 II,JST,KST,LST = 31  1  1  1 NREC =       650 INTLOC =13873
 II,JST,KST,LST = 32  1  1  1 NREC =       744 INTLOC = 8515
 TOTAL NUMBER OF NONZERO TWO-ELECTRON INTEGRALS =            14357451
        958 INTEGRAL RECORDS WERE STORED ON DISK FILE  8.
  ...... END OF TWO-ELECTRON INTEGRALS .....
 STEP CPU TIME =     0.57 TOTAL CPU TIME =        0.7 (    0.0 MIN)
 TOTAL WALL CLOCK TIME=        0.7 SECONDS, CPU UTILIZATION IS  98.59%

          --------------------------
                 RHF SCF CALCULATION
          --------------------------

     NUCLEAR ENERGY =         9.2885641284
     MAXIT =  200     NPUNCH=    2
     EXTRAP=T  DAMP=F  SHIFT=F  RSTRCT=F  DIIS=F  DEM=F  SOSCF=T
     DENSITY MATRIX CONV=  1.00E-05
     SOSCF WILL OPTIMIZE     435 ORBITAL ROTATIONS, SOGTOL=   0.250
     MEMORY REQUIRED FOR RHF ITERS=    110385 WORDS.

 ITER EX DEM     TOTAL ENERGY        E CHANGE  DENSITY CHANGE     ORB. GRAD
   1  0  0      -75.7677667003   -75.7677667003   0.704867717   0.000000000
          ---------------START SECOND ORDER SCF---------------
   2  1  0      -76.0442644117    -0.2764977114   0.077366316   0.035707897
   3  2  0      -76.0593420579    -0.0150776462   0.023457551   0.012475537
   4  3  0      -76.0610153532    -0.0016732954   0.004007584   0.003268427
   5  4  0      -76.0610919542    -0.0000766010   0.001008263   0.001495723
   6  5  0      -76.0611079137    -0.0000159595   0.000217914   0.000301206
   7  6  0      -76.0611087107    -0.0000007970   0.000047073   0.000026715
   8  7  0      -76.0611087242    -0.0000000134   0.000009110   0.000005344
   9  8  0      -76.0611087250    -0.0000000008   0.000003635   0.000001540
  10  9  0      -76.0611087250    -0.0000000000   0.000000744   0.000000385

          -----------------
          DENSITY CONVERGED
          -----------------
     TIME TO FORM FOCK OPERATORS=       1.6 SECONDS (       0.2 SEC/ITER)
     TIME TO SOLVE SCF EQUATIONS=       0.0 SECONDS (       0.0 SEC/ITER)

 FINAL RHF ENERGY IS      -76.0611087250 AFTER  10 ITERATIONS

          ------------
          EIGENVECTORS
          ------------

                      1          2          3          4          5
                  -20.5650    -1.3581    -0.7253    -0.5849    -0.5109
                     A          A          A          A          A   
    1  O  1  S    0.975432  -0.008650  -0.000000   0.004986   0.000000
    2  O  1  S   -0.001347   0.504431  -0.000000   0.181888   0.000000
    3  O  1  S    0.043642   0.132445  -0.000000   0.051927   0.000000
    4  O  1  S    0.001317   0.290459  -0.000000   0.332047   0.000000
    5  O  1  X    0.001072   0.026320   0.232849  -0.181097  -0.000000
    6  O  1  Y   -0.001465  -0.035970   0.159114   0.247495   0.090979
    7  O  1  Z    0.000390   0.009572  -0.042340  -0.065859   0.341896
    8  O  1  X   -0.000837   0.036882   0.275100  -0.221833  -0.000000
    9  O  1  Y    0.001144  -0.050404   0.187985   0.303166   0.115631
   10  O  1  Z   -0.000304   0.013413  -0.050023  -0.080673   0.434540
   11  O  1  X    0.000229   0.009314   0.120080  -0.122976  -0.000000
   12  O  1  Y   -0.000312  -0.012729   0.082055   0.168065   0.083214
   13  O  1  Z    0.000083   0.003387  -0.021835  -0.044722   0.312717
   14  O  1 XX    0.000051   0.002200   0.010392  -0.002086  -0.000000
   15  O  1 YY    0.000023   0.001183  -0.009705  -0.003318  -0.002056
   16  O  1 ZZ   -0.000074  -0.003383  -0.000687   0.005404   0.002056
   17  O  1 XY    0.000033   0.001055  -0.004100   0.002993   0.000869
   18  O  1 XZ   -0.000009  -0.000281   0.001091  -0.000796   0.003264
   19  O  1 YZ   -0.000032  -0.001510   0.002982   0.002884  -0.004145
   20  O  1 XX   -0.000286   0.004762   0.017916  -0.000585  -0.000000
   21  O  1 YY   -0.000134   0.003213  -0.016731  -0.007094  -0.004937
   22  O  1 ZZ    0.000420  -0.007975  -0.001185   0.007679   0.004937
   23  O  1 XY   -0.000173   0.001098  -0.007068   0.012048   0.002086
   24  O  1 XZ    0.000046  -0.000292   0.001881  -0.003206   0.007838
   25  O  1 YZ    0.000183  -0.003700   0.005141   0.004885  -0.009953
   26  O  1 XXX   0.000035   0.002376   0.001057  -0.001877  -0.000000
   27  O  1 YYY  -0.000010  -0.000965  -0.000101   0.001074   0.001068
   28  O  1 ZZZ  -0.000001  -0.000716   0.000861   0.001199  -0.002995
   29  O  1 XXY   0.000012   0.000340   0.001369   0.000194   0.000719
   30  O  1 XXZ  -0.000003  -0.000091  -0.000364  -0.000052   0.002701
   31  O  1 YYX  -0.000042  -0.002134   0.000649   0.000951   0.000486
   32  O  1 YYZ   0.000005   0.001051  -0.000791  -0.001557   0.001317
   33  O  1 ZZX  -0.000005  -0.001054  -0.002067   0.001567  -0.000486
   34  O  1 ZZY   0.000001   0.000954  -0.001233  -0.001635  -0.002151
   35  O  1 XYZ   0.000012   0.000357  -0.000898   0.000204   0.000979
   36  O  1  S    0.000461   0.035797  -0.000000   0.082341   0.000000
   37  O  1  X    0.000104   0.001600   0.006042  -0.007839  -0.000000
   38  O  1  Y   -0.000143  -0.002187   0.004129   0.010713   0.008427
   39  O  1  Z    0.000038   0.000582  -0.001099  -0.002851   0.031670
   40  O  1 XX    0.000088  -0.002142  -0.001851   0.005821   0.000000
   41  O  1 YY    0.000065  -0.000434   0.001728   0.000396  -0.001763
   42  O  1 ZZ   -0.000152   0.002576   0.000122  -0.006217   0.001763
   43  O  1 XY    0.000010  -0.002333   0.000730   0.007767   0.000745
   44  O  1 XZ   -0.000003   0.000621  -0.000194  -0.002067   0.002799
   45  O  1 YZ   -0.000072   0.000995  -0.000531  -0.002187  -0.003554
   46  O  1 XXX  -0.000166  -0.000174   0.001387   0.000970  -0.000000
   47  O  1 YYY   0.000061  -0.000078   0.001584  -0.000136   0.000441
   48  O  1 ZZZ   0.000036  -0.000249   0.000673   0.000230  -0.001052
   49  O  1 XXY  -0.000034  -0.000245  -0.001275   0.000520   0.000228
   50  O  1 XXZ   0.000009   0.000065   0.000339  -0.000138   0.000856
   51  O  1 YYX   0.000165   0.000506  -0.000124  -0.001477   0.000017
   52  O  1 YYZ  -0.000058   0.000269  -0.001242  -0.000171   0.000556
   53  O  1 ZZX   0.000058  -0.000272  -0.001737   0.000176  -0.000017
   54  O  1 ZZY  -0.000048   0.000349  -0.000850  -0.000337  -0.000819
   55  O  1 XYZ  -0.000035  -0.000257  -0.000533   0.000546   0.000034
   56  H  2  S    0.000523   0.090469   0.142160  -0.084662  -0.000000
   57  H  2  S    0.000712   0.075891   0.229054  -0.178465  -0.000000
   58  H  2  S   -0.000355  -0.016033   0.036673  -0.062035  -0.000000
   59  H  2  X   -0.000140  -0.013429  -0.016030   0.007112  -0.000000
   60  H  2  Y   -0.000013  -0.000171   0.004614   0.006844   0.002815
   61  H  2  Z    0.000003   0.000045  -0.001228  -0.001821   0.010578
   62  H  2  X   -0.000760  -0.009338  -0.033720   0.026702  -0.000000
   63  H  2  Y    0.000081  -0.000125   0.010987   0.017977   0.007949
   64  H  2  Z   -0.000021   0.000033  -0.002924  -0.004784   0.029873
   65  H  2 XX   -0.000183   0.002609   0.007476  -0.003439   0.000000
   66  H  2 YY    0.000094  -0.001373  -0.003491   0.001639   0.000063
   67  H  2 ZZ    0.000089  -0.001236  -0.003985   0.001800  -0.000063
   68  H  2 XY    0.000049  -0.000134  -0.002092  -0.002630  -0.001253
   69  H  2 XZ   -0.000013   0.000036   0.000557   0.000700  -0.004710
   70  H  2 YZ   -0.000001   0.000045  -0.000163   0.000053   0.000127
   71  H  2  S    0.000016  -0.001447  -0.004497  -0.001767  -0.000000
   72  H  2  X   -0.000100   0.007213   0.006160  -0.002120  -0.000000
   73  H  2  Y   -0.000008  -0.000496   0.004511   0.009509   0.004876
   74  H  2  Z    0.000002   0.000132  -0.001200  -0.002530   0.018322
   75  H  2 XX    0.000451  -0.001376   0.001231   0.001003   0.000000
   76  H  2 YY   -0.000230   0.000736  -0.001211  -0.001638  -0.000028
   77  H  2 ZZ   -0.000221   0.000641  -0.000020   0.000635   0.000028
   78  H  2 XY   -0.000043   0.000071  -0.002951  -0.003258  -0.001984
   79  H  2 XZ    0.000011  -0.000019   0.000785   0.000867  -0.007454
   80  H  2 YZ    0.000003  -0.000032   0.000394   0.000752  -0.000056
   81  H  3  S    0.000523   0.090469  -0.142160  -0.084662  -0.000000
   82  H  3  S    0.000712   0.075891  -0.229054  -0.178465   0.000000
   83  H  3  S   -0.000355  -0.016033  -0.036673  -0.062035  -0.000000
   84  H  3  X    0.000059   0.004643  -0.000842  -0.009048  -0.000000
   85  H  3  Y    0.000123   0.012178  -0.016143  -0.004199   0.002815
   86  H  3  Z   -0.000033  -0.003241   0.004296   0.001117   0.010578
   87  H  3  X    0.000175   0.003234  -0.000521  -0.026439  -0.000000
   88  H  3  Y    0.000719   0.008467  -0.034384  -0.018336   0.007949
   89  H  3  Z   -0.000191  -0.002253   0.009150   0.004879   0.029873
   90  H  3 XX    0.000091  -0.001015   0.003417  -0.000418  -0.000000
   91  H  3 YY   -0.000162   0.002012  -0.006682  -0.001183   0.001999
   92  H  3 ZZ    0.000071  -0.000996   0.003264   0.001600  -0.001999
   93  H  3 XY   -0.000059   0.001295  -0.002205  -0.003822   0.000382
   94  H  3 XZ    0.000016  -0.000345   0.000587   0.001017   0.001437
   95  H  3 YZ    0.000077  -0.000995   0.003289   0.000920   0.004030
   96  H  3  S    0.000016  -0.001447   0.004497  -0.001767   0.000000
   97  H  3  X    0.000041  -0.001920   0.006454  -0.008570  -0.000000
   98  H  3  Y    0.000089  -0.006737   0.004109   0.005101   0.004876
   99  H  3  Z   -0.000024   0.001793  -0.001093  -0.001357   0.018322
  100  H  3 XX   -0.000179   0.000548   0.002683  -0.003334  -0.000000
  101  H  3 YY    0.000358  -0.001061  -0.002444   0.002412   0.003121
  102  H  3 ZZ   -0.000180   0.000513  -0.000239   0.000922  -0.003121
  103  H  3 XY    0.000206  -0.000688   0.001407  -0.001547   0.000677
  104  H  3 XZ   -0.000055   0.000183  -0.000375   0.000412   0.002544
  105  H  3 YZ   -0.000178   0.000521   0.000729  -0.000493   0.006292

                      6          7          8          9         10
                    0.0296     0.0477     0.1361     0.1578     0.1753
                     A          A          A          A          A   
    1  O  1  S    0.000317  -0.000000  -0.006666  -0.000000  -0.002453
    2  O  1  S    0.059750  -0.000000  -0.054763  -0.000000  -0.137922
    3  O  1  S    0.012927  -0.000000  -0.016795  -0.000000  -0.054583
    4  O  1  S    0.828616  -0.000000   1.577128   0.000000   1.748742
    5  O  1  X    0.015771  -0.023055  -0.050986   0.000000  -0.009587
    6  O  1  Y   -0.021553  -0.015754   0.069679  -0.022277   0.013103
    7  O  1  Z    0.005735   0.004192  -0.018542  -0.083716  -0.003487
    8  O  1  X    0.041051  -0.061527  -0.019185   0.000000   0.037857
    9  O  1  Y   -0.056102  -0.042044   0.026219  -0.020695  -0.051737
   10  O  1  Z    0.014929   0.011188  -0.006977  -0.077770   0.013767
   11  O  1  X    0.198906  -0.452069   0.243219  -0.000000   0.322472
   12  O  1  Y   -0.271833  -0.308914  -0.332392   0.017946  -0.440704
   13  O  1  Z    0.072335   0.082202   0.088450   0.067441   0.117272
   14  O  1 XX   -0.000521  -0.000093   0.000528  -0.000000  -0.001432
   15  O  1 YY   -0.000195   0.000087   0.000128  -0.000642  -0.001437
   16  O  1 ZZ    0.000716   0.000006  -0.000656   0.000642   0.002870
   17  O  1 XY   -0.000404   0.000037   0.000537   0.000271   0.000526
   18  O  1 XZ    0.000108  -0.000010  -0.000143   0.001019  -0.000140
   19  O  1 YZ    0.000301  -0.000027  -0.000259  -0.001294   0.001424
   20  O  1 XX    0.013573  -0.024417   0.010119   0.000000   0.042704
   21  O  1 YY    0.007556   0.022802  -0.000122   0.009809   0.022036
   22  O  1 ZZ   -0.021129   0.001615  -0.009997  -0.009810  -0.064740
   23  O  1 XY    0.006046   0.009633   0.014973  -0.004144   0.022180
   24  O  1 XZ   -0.001609  -0.002563  -0.003984  -0.015573  -0.005902
   25  O  1 YZ   -0.009486  -0.007006  -0.003266   0.019776  -0.028695
   26  O  1 XXX   0.001288  -0.000412   0.002401   0.000000   0.003583
   27  O  1 YYY  -0.000477  -0.000676  -0.000745  -0.001505  -0.001460
   28  O  1 ZZZ  -0.000294  -0.000145  -0.000257   0.003819  -0.001091
   29  O  1 XXY   0.000253   0.000747   0.000684  -0.000862   0.000505
   30  O  1 XXZ  -0.000067  -0.000199  -0.000182  -0.003240  -0.000134
   31  O  1 YYX  -0.001265   0.000154  -0.002697  -0.000281  -0.003205
   32  O  1 YYZ   0.000462   0.000393   0.000527  -0.001884   0.001598
   33  O  1 ZZX  -0.000463   0.000399  -0.000524   0.000281  -0.001602
   34  O  1 ZZY   0.000387   0.000160   0.000315   0.002882   0.001454
   35  O  1 XYZ   0.000265   0.000081   0.000718  -0.000567   0.000530
   36  O  1  S    2.435996  -0.000001   6.709179   0.000000   4.291797
   37  O  1  X    0.124773  -0.941197   1.195976  -0.000001  -0.515642
   38  O  1  Y   -0.170520  -0.643152  -1.634470   0.475603   0.704695
   39  O  1  Z    0.045376   0.171143   0.434935   1.787303  -0.187520
   40  O  1 XX    0.032718  -0.104766   0.032412  -0.000000   0.058698
   41  O  1 YY    0.010334   0.097838   0.052548  -0.073767  -0.034310
   42  O  1 ZZ   -0.043052   0.006928  -0.084960   0.073767  -0.024387
   43  O  1 XY    0.028904   0.041331  -0.048313   0.031164   0.147972
   44  O  1 XZ   -0.007691  -0.010998   0.012856   0.117111  -0.039375
   45  O  1 YZ   -0.017654  -0.030062  -0.045471  -0.148716   0.003282
   46  O  1 XXX   0.009712  -0.005071  -0.006102  -0.000000   0.025277
   47  O  1 YYY  -0.003799  -0.002638   0.001666   0.004880  -0.007980
   48  O  1 ZZZ  -0.002633  -0.003298   0.000192  -0.011600  -0.002980
   49  O  1 XXY   0.001605  -0.000979  -0.002076   0.002502   0.007005
   50  O  1 XXZ  -0.000427   0.000261   0.000553   0.009402  -0.001864
   51  O  1 YYX  -0.009063  -0.001337   0.007389   0.000131  -0.028075
   52  O  1 YYZ   0.003959   0.004165  -0.000809   0.006161   0.005863
   53  O  1 ZZX  -0.003967   0.008140   0.000797  -0.000131  -0.005838
   54  O  1 ZZY   0.003491   0.004519  -0.000159  -0.009049   0.003702
   55  O  1 XYZ   0.001685   0.003134  -0.002180   0.000264   0.007353
   56  H  2  S   -0.001559  -0.006576  -0.000153   0.000000   0.028004
   57  H  2  S   -0.249768   0.268944  -0.253578  -0.000000  -0.519882
   58  H  2  S   -0.977543   1.399472  -3.233146  -0.000000  -1.352387
   59  H  2  X   -0.001711   0.000011   0.000469   0.000000   0.014779
   60  H  2  Y   -0.000868  -0.001319   0.000107   0.000158   0.000925
   61  H  2  Z    0.000231   0.000351  -0.000029   0.000595  -0.000246
   62  H  2  X    0.101701  -0.096127   0.248729   0.000000   0.270447
   63  H  2  Y   -0.002560   0.019364   0.017968  -0.011256  -0.040391
   64  H  2  Z    0.000681  -0.005153  -0.004781  -0.042301   0.010748
   65  H  2 XX   -0.005318   0.005905  -0.013288   0.000000  -0.014138
   66  H  2 YY    0.002761  -0.002712   0.005269   0.000319   0.008976
   67  H  2 ZZ    0.002558  -0.003193   0.008018  -0.000319   0.005162
   68  H  2 XY    0.001221   0.000228   0.000381  -0.000778   0.004493
   69  H  2 XZ   -0.000325  -0.000061  -0.000102  -0.002925  -0.001196
   70  H  2 YZ   -0.000067  -0.000159   0.000909   0.000642  -0.001261
   71  H  2  S   -0.862327   3.449235  -0.723201  -0.000000  -0.715737
   72  H  2  X    0.298020  -0.411349   0.866323   0.000000   1.200457
   73  H  2  Y   -0.033046   0.103028   0.092262  -0.151393  -0.276105
   74  H  2  Z    0.008794  -0.027416  -0.024550  -0.568930   0.073473
   75  H  2 XX   -0.034067   0.027229  -0.098663  -0.000000  -0.130390
   76  H  2 YY    0.015384  -0.017790   0.056789   0.002815   0.061810
   77  H  2 ZZ    0.018683  -0.009439   0.041874  -0.002815   0.068581
   78  H  2 XY    0.001696  -0.022114  -0.015931   0.021661   0.024766
   79  H  2 XZ   -0.000451   0.005885   0.004239   0.081403  -0.006591
   80  H  2 YZ    0.001091   0.002762  -0.004932   0.005675   0.002239
   81  H  3  S   -0.001559   0.006576  -0.000153   0.000000   0.028004
   82  H  3  S   -0.249768  -0.268944  -0.253578  -0.000000  -0.519882
   83  H  3  S   -0.977542  -1.399472  -3.233145  -0.000000  -1.352390
   84  H  3  X    0.001418  -0.001284  -0.000261  -0.000000  -0.005828
   85  H  3  Y    0.001270   0.000450  -0.000392   0.000158  -0.013157
   86  H  3  Z   -0.000338  -0.000120   0.000104   0.000595   0.003501
   87  H  3  X   -0.031402  -0.013150  -0.100437   0.000000  -0.050740
   88  H  3  Y   -0.093514  -0.094036  -0.220629  -0.011256  -0.259870
   89  H  3  Z    0.024884   0.025023   0.058709  -0.042301   0.069152
   90  H  3 XX    0.002565   0.001593   0.003236   0.000000   0.009197
   91  H  3 YY   -0.004601  -0.004291  -0.010162   0.001334  -0.012816
   92  H  3 ZZ    0.002036   0.002697   0.006926  -0.001334   0.003619
   93  H  3 XY   -0.001889  -0.003187  -0.006137   0.000080  -0.004713
   94  H  3 XZ    0.000503   0.000848   0.001633   0.000300   0.001254
   95  H  3 YZ    0.002195   0.002311   0.005651   0.002690   0.005435
   96  H  3  S   -0.862328  -3.449235  -0.723201  -0.000000  -0.715740
   97  H  3  X   -0.067097  -0.036597  -0.378779   0.000000  -0.130768
   98  H  3  Y   -0.282543  -0.409124  -0.758559  -0.151393  -1.185777
   99  H  3  Z    0.075185   0.108868   0.201853  -0.568930   0.315536
  100  H  3 XX    0.010622   0.025810   0.031554   0.000000   0.053947
  101  H  3 YY   -0.026349  -0.031741  -0.064817  -0.033245  -0.110338
  102  H  3 ZZ    0.015728   0.005931   0.033263   0.033245   0.056391
  103  H  3 XY   -0.015934   0.001190  -0.067303  -0.008806  -0.047956
  104  H  3 XZ    0.004240  -0.000317   0.017909  -0.033092   0.012761
  105  H  3 YZ    0.013914   0.012458   0.032433  -0.067023   0.055134

                     11         12         13         14         15
                    0.1827     0.2288     0.2454     0.2650     0.3022
                     A          A          A          A          A   
    1  O  1  S   -0.000000   0.000000  -0.011704   0.000000  -0.000000
    2  O  1  S    0.000000   0.000000  -0.016394  -0.000000  -0.000000
    3  O  1  S    0.000000  -0.000000  -0.005462   0.000000  -0.000000
    4  O  1  S   -0.000001   0.000001   0.236885  -0.000000   0.000000
    5  O  1  X    0.074877  -0.053824   0.000545  -0.000000  -0.000000
    6  O  1  Y    0.051166  -0.036780  -0.000745  -0.000000   0.022128
    7  O  1  Z   -0.013615   0.009787   0.000198  -0.000000   0.083155
    8  O  1  X   -0.007918  -0.020321   0.001745  -0.000000  -0.000000
    9  O  1  Y   -0.005410  -0.013886  -0.002385   0.000000   0.015320
   10  O  1  Z    0.001440   0.003695   0.000635   0.000000   0.057573
   11  O  1  X   -1.375933  -0.710238  -0.432853  -0.000000  -0.000001
   12  O  1  Y   -0.940222  -0.485330   0.591555   0.000000   0.517973
   13  O  1  Z    0.250193   0.129146  -0.157414   0.000000   1.946528
   14  O  1 XX    0.002991   0.003545  -0.002573   0.000000   0.000000
   15  O  1 YY   -0.002794  -0.003311   0.001913  -0.001422   0.002366
   16  O  1 ZZ   -0.000198  -0.000234   0.000659   0.001422  -0.002366
   17  O  1 XY   -0.001180  -0.001399  -0.007230  -0.001201  -0.000999
   18  O  1 XZ    0.000314   0.000372   0.001924  -0.004515  -0.003756
   19  O  1 YZ    0.000858   0.001017  -0.000415  -0.002867   0.004769
   20  O  1 XX   -0.072241   0.012234   0.010263  -0.000000  -0.000000
   21  O  1 YY    0.067464  -0.011425  -0.012642   0.004600  -0.013494
   22  O  1 ZZ    0.004777  -0.000809   0.002379  -0.004600   0.013494
   23  O  1 XY    0.028500  -0.004827   0.037952   0.003887   0.005701
   24  O  1 XZ   -0.007584   0.001284  -0.010099   0.014605   0.021423
   25  O  1 YZ   -0.020729   0.003511   0.004967   0.009274  -0.027204
   26  O  1 XXX  -0.000540   0.004642  -0.003205   0.000000   0.000000
   27  O  1 YYY  -0.002051   0.006088   0.000378   0.005016  -0.003250
   28  O  1 ZZZ   0.000120   0.002042  -0.000909   0.001335   0.007904
   29  O  1 XXY   0.003062  -0.005675  -0.001827  -0.002402  -0.001733
   30  O  1 XXZ  -0.000815   0.001510   0.000486  -0.009027  -0.006513
   31  O  1 YYX   0.000863  -0.000862   0.005050   0.001641  -0.000266
   32  O  1 YYZ   0.000654  -0.004250   0.000733   0.007236  -0.004091
   33  O  1 ZZX  -0.000138  -0.005366  -0.000751  -0.001641   0.000266
   34  O  1 ZZY  -0.000310  -0.002494   0.001320  -0.004328   0.006094
   35  O  1 XYZ  -0.000331  -0.001489  -0.001918   0.003309  -0.000536
   36  O  1  S   -0.000003   0.000003   2.834428  -0.000000   0.000001
   37  O  1  X   -3.011720  -1.361612  -0.316723   0.000000  -0.000001
   38  O  1  Y   -2.058012  -0.930436   0.432847  -0.000000   0.503619
   39  O  1  Z    0.547637   0.247589  -0.115181  -0.000000   1.892586
   40  O  1 XX   -0.385543  -0.599226   0.310619  -0.000001  -0.000000
   41  O  1 YY    0.360049   0.559601  -0.157683   0.176642  -0.201037
   42  O  1 ZZ    0.025495   0.039625  -0.152936  -0.176641   0.201038
   43  O  1 XY    0.152100   0.236399   0.739608   0.149245   0.084930
   44  O  1 XZ   -0.040474  -0.062907  -0.196810   0.560859   0.319165
   45  O  1 YZ   -0.110631  -0.171947   0.001570   0.356116  -0.405297
   46  O  1 XXX  -0.016812  -0.031132   0.043218  -0.000000  -0.000000
   47  O  1 YYY  -0.009823  -0.042673  -0.007148  -0.043360   0.030316
   48  O  1 ZZZ  -0.010650  -0.013205   0.008095  -0.011538  -0.080355
   49  O  1 XXY  -0.001322   0.041350   0.021609   0.020764   0.018654
   50  O  1 XXZ   0.000352  -0.011003  -0.005750   0.078031   0.070100
   51  O  1 YYX  -0.003821   0.006829  -0.063291  -0.014188   0.009113
   52  O  1 YYZ   0.013936   0.028720  -0.005111  -0.062551   0.037707
   53  O  1 ZZX   0.026377   0.034938   0.005308   0.014188  -0.009113
   54  O  1 ZZY   0.014501   0.015902  -0.012019   0.037409  -0.059327
   55  O  1 XYZ   0.009986   0.009295   0.022685  -0.028604   0.018373
   56  H  2  S    0.001424   0.038452  -0.032314  -0.000000  -0.000000
   57  H  2  S    0.958891   0.716901  -0.198274   0.000000  -0.000000
   58  H  2  S    4.958426  -0.092442  -1.512393   0.000000  -0.000001
   59  H  2  X   -0.012814   0.004957   0.000832  -0.000000  -0.000000
   60  H  2  Y   -0.002540  -0.007090   0.007534   0.000496   0.002025
   61  H  2  Z    0.000676   0.001887  -0.002005   0.001864   0.007609
   62  H  2  X   -0.352605   0.024356   0.034062   0.000000   0.000000
   63  H  2  Y    0.066112  -0.027118  -0.322489  -0.076262  -0.091957
   64  H  2  Z   -0.017593   0.007216   0.085815  -0.286592  -0.345573
   65  H  2 XX    0.021640  -0.001695  -0.005180  -0.000000  -0.000000
   66  H  2 YY   -0.009538   0.002230   0.008137   0.000210  -0.000233
   67  H  2 ZZ   -0.012102  -0.000535  -0.002957  -0.000210   0.000233
   68  H  2 XY   -0.000887   0.003260   0.009744   0.001717   0.002763
   69  H  2 XZ    0.000236  -0.000868  -0.002593   0.006452   0.010383
   70  H  2 YZ   -0.000848  -0.000914  -0.003669   0.000423  -0.000469
   71  H  2  S    3.385789   0.041818  -0.097571  -0.000000  -0.000000
   72  H  2  X   -1.580304   1.570483  -0.112273   0.000001   0.000002
   73  H  2  Y    0.332111   0.075631  -1.335613  -0.465482  -0.498024
   74  H  2  Z   -0.088376  -0.020124   0.355408  -1.749271  -1.871563
   75  H  2 XX    0.066117  -0.224863   0.056694  -0.000000  -0.000000
   76  H  2 YY   -0.052972   0.063876  -0.059457  -0.015883   0.011412
   77  H  2 ZZ   -0.013145   0.160988   0.002763   0.015883  -0.011412
   78  H  2 XY   -0.075717   0.021861   0.269575   0.086167   0.095577
   79  H  2 XZ    0.020148  -0.005818  -0.071734   0.323814   0.359176
   80  H  2 YZ    0.013170   0.032113   0.020575  -0.032020   0.023008
   81  H  3  S   -0.001424  -0.038452  -0.032314   0.000000  -0.000000
   82  H  3  S   -0.958890  -0.716901  -0.198273  -0.000000  -0.000000
   83  H  3  S   -4.958423   0.092439  -1.512394   0.000000  -0.000000
   84  H  3  X   -0.006749  -0.005264  -0.007627   0.000000  -0.000000
   85  H  3  Y   -0.010828   0.006880   0.001753  -0.000496   0.002025
   86  H  3  Z    0.002881  -0.001831  -0.000467  -0.001864   0.007609
   87  H  3  X   -0.053032  -0.018339   0.303273  -0.000000   0.000000
   88  H  3  Y   -0.343297   0.031230  -0.138528   0.076262  -0.091957
   89  H  3  Z    0.091352  -0.008310   0.036863   0.286592  -0.345573
   90  H  3 XX    0.006400  -0.003818   0.012898  -0.000000   0.000000
   91  H  3 YY   -0.016648   0.002918  -0.008745   0.002640  -0.004438
   92  H  3 ZZ    0.010248   0.000900  -0.004152  -0.002640   0.004438
   93  H  3 XY   -0.010174  -0.001086   0.002612   0.000690  -0.000790
   94  H  3 XZ    0.002707   0.000289  -0.000695   0.002595  -0.002968
   95  H  3 YZ    0.008894  -0.000667   0.001519   0.005322  -0.008946
   96  H  3  S   -3.385789  -0.041819  -0.097571   0.000000   0.000000
   97  H  3  X   -0.202739   0.597268   1.340476  -0.000001   0.000001
   98  H  3  Y   -1.550525   1.405666  -0.342901   0.465483  -0.498024
   99  H  3  Z    0.412596  -0.374049   0.091247   1.749271  -1.871562
  100  H  3 XX    0.085087  -0.037531   0.101075  -0.000000   0.000000
  101  H  3 YY   -0.088233   0.181167  -0.100903   0.141273  -0.147024
  102  H  3 ZZ    0.003146  -0.143636  -0.000172  -0.141273   0.147024
  103  H  3 XY    0.016066   0.081655   0.252066   0.019775  -0.038286
  104  H  3 XZ   -0.004275  -0.021728  -0.067075   0.074316  -0.143880
  105  H  3 YZ    0.030217  -0.107407   0.033310   0.284811  -0.296406

                     16         17         18         19         20
                    0.3115     0.3661     0.4403     0.4686     0.6010
                     A          A          A          A          A   
    1  O  1  S   -0.019316   0.000000   0.010836  -0.000000  -0.000000
    2  O  1  S   -0.077538  -0.000000   0.201872  -0.000000  -0.000000
    3  O  1  S   -0.045356   0.000000   0.056861  -0.000000   0.000000
    4  O  1  S    1.541615  -0.000001   5.379138  -0.000007  -0.000001
    5  O  1  X    0.048898  -0.011964   0.058453  -0.132583  -0.061446
    6  O  1  Y   -0.066826  -0.008176  -0.079885  -0.090598  -0.041988
    7  O  1  Z    0.017783   0.002176   0.021257   0.024108   0.011173
    8  O  1  X    0.106787   0.018080   0.201967  -0.415146  -0.012146
    9  O  1  Y   -0.145939   0.012354  -0.276017  -0.283683  -0.008299
   10  O  1  Z    0.038835  -0.003288   0.073448   0.075488   0.002208
   11  O  1  X    1.471981  -0.984166   0.429450  -2.764156   3.306138
   12  O  1  Y   -2.011669  -0.672514  -0.586910  -1.888842   2.259197
   13  O  1  Z    0.535308   0.178956   0.156178   0.502620  -0.601172
   14  O  1 XX   -0.002435  -0.002021  -0.002323   0.004865   0.010091
   15  O  1 YY   -0.003111   0.001887   0.000172  -0.004544  -0.009423
   16  O  1 ZZ    0.005546   0.000134   0.002151  -0.000322  -0.000667
   17  O  1 XY    0.002108   0.000797  -0.003699  -0.001919  -0.003981
   18  O  1 XZ   -0.000561  -0.000212   0.000984   0.000511   0.001059
   19  O  1 YZ    0.002863  -0.000580   0.000654   0.001396   0.002895
   20  O  1 XX    0.035229   0.016277   0.038172  -0.162562   0.182578
   21  O  1 YY    0.033487  -0.015201   0.018416   0.151812  -0.170505
   22  O  1 ZZ   -0.068715  -0.001076  -0.056587   0.010750  -0.012073
   23  O  1 XY   -0.009542  -0.006421   0.022158   0.064132  -0.072028
   24  O  1 XZ    0.002539   0.001709  -0.005896  -0.017066   0.019167
   25  O  1 YZ   -0.033796   0.004671  -0.024802  -0.046647   0.052390
   26  O  1 XXX   0.000328  -0.000663   0.013457  -0.007329  -0.006373
   27  O  1 YYY   0.001093  -0.005167  -0.005601  -0.009004  -0.007732
   28  O  1 ZZZ   0.002390   0.000852  -0.004334  -0.003386  -0.002970
   29  O  1 XXY   0.001865   0.008498   0.001723   0.007871   0.006670
   30  O  1 XXZ  -0.000496  -0.002261  -0.000458  -0.002095  -0.001775
   31  O  1 YYX  -0.003180   0.002564  -0.011762   0.001016   0.000828
   32  O  1 YYZ  -0.002711   0.001118   0.006273   0.006637   0.005760
   33  O  1 ZZX   0.002740  -0.001675  -0.006293   0.008816   0.007723
   34  O  1 ZZY  -0.003331  -0.001566   0.005792   0.004209   0.003704
   35  O  1 XYZ   0.001957  -0.001402   0.001809   0.002579   0.002280
   36  O  1  S    7.061820  -0.000001  10.865326  -0.000012  -0.000003
   37  O  1  X    1.414909  -2.672764   0.516236  -2.513174   1.810983
   38  O  1  Y   -1.933673  -1.826392  -0.705515  -1.717337   1.237507
   39  O  1  Z    0.514553   0.486002   0.187739   0.456983  -0.329300
   40  O  1 XX    0.207273  -0.079696  -0.171690  -0.129849   2.114897
   41  O  1 YY    0.275181   0.074426  -0.093366   0.121263  -1.975045
   42  O  1 ZZ   -0.482453   0.005270   0.265056   0.008586  -0.139852
   43  O  1 XY   -0.198283   0.031440  -0.080500   0.051227  -0.834343
   44  O  1 XZ    0.052764  -0.008366   0.021421  -0.013632   0.222021
   45  O  1 YZ   -0.250536  -0.022869   0.118524  -0.037260   0.606865
   46  O  1 XXX   0.058779   0.005929  -0.053820   0.000709   0.100847
   47  O  1 YYY  -0.032832   0.046533   0.023375   0.028555   0.137691
   48  O  1 ZZZ  -0.035919  -0.007706   0.019310  -0.007040   0.042920
   49  O  1 XXY  -0.004878  -0.076579  -0.005448  -0.050285  -0.132978
   50  O  1 XXZ   0.001298   0.020378   0.001450   0.013381   0.035386
   51  O  1 YYX  -0.031685  -0.023113   0.044751  -0.015821  -0.021815
   52  O  1 YYZ   0.046892  -0.010039  -0.027357  -0.003936  -0.092969
   53  O  1 ZZX  -0.047175   0.015159   0.027456   0.014870  -0.113486
   54  O  1 ZZY   0.048928   0.014149  -0.025913   0.011974  -0.051754
   55  O  1 XYZ  -0.005122   0.012656  -0.005719   0.010149  -0.030314
   56  H  2  S   -0.013647  -0.017594  -0.032278   0.016362   0.107039
   57  H  2  S   -1.426987   0.323487  -0.237302   1.305378  -2.617120
   58  H  2  S   -3.698984  -4.301561  -6.691690  11.796313  -6.655098
   59  H  2  X    0.004408  -0.002434  -0.021373   0.001370   0.017448
   60  H  2  Y   -0.009702  -0.005920   0.001083  -0.004329   0.004629
   61  H  2  Z    0.002582   0.001575  -0.000288   0.001152  -0.001232
   62  H  2  X    0.435108   0.098452   0.469381  -0.686792   0.634795
   63  H  2  Y    0.218315   0.267258  -0.048729   0.144440   0.018553
   64  H  2  Z   -0.058094  -0.071118   0.012967  -0.038436  -0.004936
   65  H  2 XX   -0.027890  -0.007890  -0.022235   0.045740  -0.030015
   66  H  2 YY    0.009583   0.012357   0.011310  -0.021458   0.014433
   67  H  2 ZZ    0.018307  -0.004467   0.010925  -0.024282   0.015582
   68  H  2 XY   -0.007589   0.000754   0.007970  -0.004955  -0.005549
   69  H  2 XZ    0.002019  -0.000201  -0.002121   0.001319   0.001477
   70  H  2 YZ    0.002885  -0.005564  -0.000127  -0.000934   0.000380
   71  H  2  S   -0.263809   0.705098  -0.704177   2.111980  -0.811442
   72  H  2  X   -0.537467   2.632270   2.880554  -4.326576   1.014588
   73  H  2  Y    0.787719   3.981714  -0.204086  -0.102281   0.713034
   74  H  2  Z   -0.209613  -1.059536   0.054310   0.027214  -0.189738
   75  H  2 XX    0.129758  -0.115305  -0.471514   0.340650   0.385222
   76  H  2 YY   -0.082818  -0.062050   0.250157  -0.160940  -0.126159
   77  H  2 ZZ   -0.046940   0.177355   0.221358  -0.179710  -0.259062
   78  H  2 XY   -0.134193  -0.494914   0.007537  -0.109178  -0.181398
   79  H  2 XZ    0.035709   0.131697  -0.002006   0.029053   0.048271
   80  H  2 YZ    0.011864   0.079167  -0.009523  -0.006207  -0.043949
   81  H  3  S   -0.013647   0.017594  -0.032278  -0.016362  -0.107039
   82  H  3  S   -1.426985  -0.323487  -0.237304  -1.305377   2.617119
   83  H  3  S   -3.698983   4.301563  -6.691707 -11.796297   6.655102
   84  H  3  X    0.007996  -0.006587   0.006068  -0.003766   0.010332
   85  H  3  Y   -0.007250  -0.000245   0.019834   0.002691   0.014354
   86  H  3  Z    0.001929   0.000065  -0.005278  -0.000716  -0.003820
   87  H  3  X   -0.358025   0.293559  -0.108915  -0.088006   0.229693
   88  H  3  Y   -0.323660   0.000617  -0.443900  -0.673885   0.572182
   89  H  3  Z    0.086126  -0.000164   0.118122   0.179321  -0.152258
   90  H  3 XX    0.000554  -0.011672   0.012098   0.016592  -0.006291
   91  H  3 YY   -0.016980   0.005911  -0.020753  -0.036752   0.019472
   92  H  3 ZZ    0.016426   0.005761   0.008655   0.020160  -0.013182
   93  H  3 XY   -0.018810   0.006963  -0.005574  -0.019635   0.019872
   94  H  3 XZ    0.005005  -0.001853   0.001483   0.005225  -0.005288
   95  H  3 YZ    0.011047  -0.000050   0.009725   0.018820  -0.010798
   96  H  3  S   -0.263809  -0.705098  -0.704181  -2.111979   0.811443
   97  H  3  X   -0.589365   4.762045  -0.761050  -1.541940   1.033838
   98  H  3  Y    0.752255   1.071075  -2.692525  -3.907873   0.686727
   99  H  3  Z   -0.200176  -0.285010   0.716483   1.039887  -0.182738
  100  H  3 XX   -0.137216   0.362949   0.176171   0.165434   0.162514
  101  H  3 YY    0.166501  -0.169218  -0.354700  -0.311678  -0.385355
  102  H  3 ZZ   -0.029285  -0.193731   0.178528   0.146244   0.222842
  103  H  3 XY   -0.028870   0.397216  -0.247980  -0.090476  -0.034688
  104  H  3 XZ    0.007682  -0.105699   0.065988   0.024076   0.009230
  105  H  3 YZ   -0.064743  -0.008106   0.176329   0.151427   0.201120

                     21         22         23         24         25
                    0.6585     0.7095     0.7214     0.7312     0.8338
                     A          A          A          A          A   
    1  O  1  S   -0.035664  -0.032518   0.000000  -0.000000   0.002948
    2  O  1  S   -0.095404  -0.102936   0.000000   0.000000   0.095368
    3  O  1  S   -0.026582  -0.027779  -0.000000  -0.000000  -0.015775
    4  O  1  S    1.694544   1.632461   0.000000   0.000001   4.310792
    5  O  1  X    0.003039  -0.014159  -0.000000  -0.000000  -0.001987
    6  O  1  Y   -0.004154   0.019350   0.000000   0.003341   0.002716
    7  O  1  Z    0.001105  -0.005149   0.000000   0.012555  -0.000723
    8  O  1  X    0.049187   0.056861   0.000000  -0.000000   0.102730
    9  O  1  Y   -0.067220  -0.077709  -0.000000   0.019865  -0.140396
   10  O  1  Z    0.017887   0.020679  -0.000000   0.074654   0.037359
   11  O  1  X   -0.738480   1.258523   0.000000  -0.000001   1.015388
   12  O  1  Y    1.009239  -1.719949   0.000000   0.526261  -1.387672
   13  O  1  Z   -0.268560   0.457681  -0.000001   1.977674   0.369262
   14  O  1 XX    0.009972   0.012731   0.000000  -0.000000  -0.004987
   15  O  1 YY    0.005464   0.013486  -0.003398  -0.009952  -0.002544
   16  O  1 ZZ   -0.015437  -0.026216   0.003398   0.009952   0.007530
   17  O  1 XY    0.004600  -0.005966  -0.002871   0.004204  -0.002644
   18  O  1 XZ   -0.001224   0.001588  -0.010789   0.015800   0.000703
   19  O  1 YZ   -0.006912  -0.013129  -0.006850  -0.020064   0.003331
   20  O  1 XX    0.062069  -0.022964   0.000000   0.000000   0.092600
   21  O  1 YY   -0.037905   0.002146  -0.029578   0.002975   0.009735
   22  O  1 ZZ   -0.024164   0.020818   0.029578  -0.002975  -0.102334
   23  O  1 XY    0.159423  -0.037380  -0.024990  -0.001257   0.117293
   24  O  1 XZ   -0.042423   0.009947  -0.093913  -0.004723  -0.031212
   25  O  1 YZ    0.004544   0.006175  -0.059630   0.005998  -0.037059
   26  O  1 XXX  -0.000537  -0.002749  -0.000000   0.000000  -0.018827
   27  O  1 YYY  -0.001340   0.001491  -0.009876  -0.003143   0.004678
   28  O  1 ZZZ  -0.003002   0.001591  -0.002628   0.013043  -0.000351
   29  O  1 XXY  -0.002387   0.000163   0.004729  -0.003702  -0.007095
   30  O  1 XXZ   0.000635  -0.000043   0.017773  -0.013911   0.001888
   31  O  1 YYX   0.004149   0.001585  -0.003232  -0.005660   0.023891
   32  O  1 YYZ   0.003392  -0.002091  -0.014247  -0.003589  -0.001417
   33  O  1 ZZX  -0.003428   0.002103   0.003232   0.005660   0.001368
   34  O  1 ZZY   0.004184  -0.002164   0.008520   0.007919   0.000819
   35  O  1 XYZ  -0.002506   0.000171  -0.006515  -0.011410  -0.007448
   36  O  1  S    4.919199   3.871416  -0.000001   0.000000   0.428258
   37  O  1  X    0.182387   1.025489  -0.000000  -0.000001  -0.248022
   38  O  1  Y   -0.249257  -1.401476   0.000000   0.377124   0.338958
   39  O  1  Z    0.066328   0.372935  -0.000000   1.417222  -0.090197
   40  O  1 XX    0.831032   0.149313   0.000002  -0.000001   0.708657
   41  O  1 YY   -0.254616   0.679066  -0.517403  -0.515460  -0.067845
   42  O  1 ZZ   -0.576417  -0.828378   0.517401   0.515461  -0.640812
   43  O  1 XY    1.674585  -1.017306  -0.437154   0.217762   1.156514
   44  O  1 XZ   -0.445607   0.270706  -1.642817   0.818339  -0.307748
   45  O  1 YZ   -0.106412  -0.498486  -1.043102  -1.039185  -0.189469
   46  O  1 XXX   0.088852   0.014448   0.000000  -0.000000   0.258305
   47  O  1 YYY  -0.014308  -0.016555   0.112189   0.035530  -0.073974
   48  O  1 ZZZ   0.017431  -0.026060   0.029854  -0.114044  -0.015076
   49  O  1 XXY   0.045001  -0.013781  -0.053725   0.029316   0.082813
   50  O  1 XXZ  -0.011975   0.003667  -0.201897   0.110168  -0.022036
   51  O  1 YYX  -0.131033   0.012184   0.036711   0.030563  -0.304722
   52  O  1 YYZ  -0.011412   0.031295   0.161845   0.042838   0.042263
   53  O  1 ZZX   0.011826  -0.031567  -0.036711  -0.030563  -0.041831
   54  O  1 ZZY  -0.025806   0.035993  -0.096792  -0.076984   0.016433
   55  O  1 XYZ   0.047241  -0.014468   0.074010   0.061617   0.086933
   56  H  2  S    0.060825   0.059637  -0.000000   0.000000  -0.069857
   57  H  2  S   -0.235828  -0.701102  -0.000000  -0.000001  -3.127737
   58  H  2  S   -3.189358  -2.458631   0.000000  -0.000000   0.110107
   59  H  2  X   -0.001573  -0.010260   0.000000  -0.000000   0.035677
   60  H  2  Y    0.037886  -0.028480  -0.009439   0.008456  -0.002926
   61  H  2  Z   -0.010082   0.007578  -0.035471   0.031776   0.000779
   62  H  2  X    0.330947   0.365311  -0.000000   0.000001   0.429777
   63  H  2  Y   -0.573508   0.380472   0.178287  -0.122605  -0.353120
   64  H  2  Z    0.152611  -0.101244   0.669998  -0.460746   0.093966
   65  H  2 XX   -0.018319  -0.012138   0.000000  -0.000000  -0.007437
   66  H  2 YY    0.018020  -0.006337   0.000215   0.003005   0.002799
   67  H  2 ZZ    0.000298   0.018475  -0.000215  -0.003005   0.004638
   68  H  2 XY    0.020187  -0.004016  -0.005663   0.001426   0.036201
   69  H  2 XZ   -0.005372   0.001069  -0.021282   0.005360  -0.009633
   70  H  2 YZ   -0.005860   0.008205   0.000434   0.006059   0.000608
   71  H  2  S   -0.142300  -0.081136   0.000000   0.000000  -0.093321
   72  H  2  X    0.285777  -0.082812  -0.000001   0.000001   0.140213
   73  H  2  Y   -1.149251   0.910401   0.440049  -0.371944  -0.253308
   74  H  2  Z    0.305817  -0.242258   1.653695  -1.397756   0.067405
   75  H  2 XX    0.094202  -0.031748   0.000001  -0.000001  -0.310051
   76  H  2 YY   -0.087755   0.171006   0.005142  -0.095910   0.362782
   77  H  2 ZZ   -0.006447  -0.139258  -0.005143   0.095911  -0.052730
   78  H  2 XY    0.641246  -0.416793  -0.227845   0.140438   0.091215
   79  H  2 XZ   -0.170636   0.110909  -0.856236   0.527761  -0.024272
   80  H  2 YZ    0.026888  -0.102599   0.010366  -0.193359  -0.137402
   81  H  3  S    0.060825   0.059637  -0.000000  -0.000000  -0.069857
   82  H  3  S   -0.235827  -0.701100   0.000000  -0.000000  -3.127738
   83  H  3  S   -3.189358  -2.458632   0.000000  -0.000000   0.110108
   84  H  3  X   -0.036438   0.031205  -0.000000  -0.000000  -0.009037
   85  H  3  Y    0.014061  -0.000145   0.009439   0.008456  -0.033481
   86  H  3  Z   -0.003742   0.000039   0.035471   0.031776   0.008909
   87  H  3  X    0.449214  -0.492964   0.000001   0.000000   0.201255
   88  H  3  Y   -0.492692  -0.206016  -0.178287  -0.122605  -0.509276
   89  H  3  Z    0.131106   0.054821  -0.669997  -0.460746   0.135519
   90  H  3 XX    0.026554  -0.010924   0.000000   0.000000   0.021928
   91  H  3 YY   -0.023885  -0.007470  -0.009009  -0.001249  -0.024624
   92  H  3 ZZ   -0.002669   0.018395   0.009009   0.001249   0.002696
   93  H  3 XY    0.002485  -0.004495  -0.001767  -0.002168   0.024616
   94  H  3 XZ   -0.000661   0.001196  -0.006639  -0.008148  -0.006550
   95  H  3 YZ    0.007016   0.008553  -0.018162  -0.002518   0.009034
   96  H  3  S   -0.142300  -0.081136  -0.000000  -0.000000  -0.093321
   97  H  3  X    1.025977  -0.860603   0.000001   0.000001   0.200396
   98  H  3  Y   -0.643448   0.378909  -0.440050  -0.371944  -0.212182
   99  H  3  Z    0.171223  -0.100829  -1.653694  -1.397756   0.056462
  100  H  3 XX    0.288142  -0.065267   0.000000  -0.000000   0.367550
  101  H  3 YY   -0.268871   0.202308  -0.361272  -0.253592  -0.270012
  102  H  3 ZZ   -0.019272  -0.137041   0.361272   0.253592  -0.097538
  103  H  3 XY    0.564736  -0.403570  -0.073049   0.007213  -0.176104
  104  H  3 XZ   -0.150276   0.107390  -0.274521   0.027105   0.046862
  105  H  3 YZ    0.082539  -0.112217  -0.728337  -0.511250   0.057034

                     26         27         28         29         30
                    0.8467     0.8891     0.9153     0.9185     0.9234
                     A          A          A          A          A   
    1  O  1  S   -0.000000  -0.046405   0.000000  -0.000000  -0.000000
    2  O  1  S   -0.000000   0.009378   0.000000   0.000000   0.000000
    3  O  1  S   -0.000000  -0.077345   0.000000  -0.000000  -0.000000
    4  O  1  S    0.000000   9.302485   0.000001   0.000001   0.000000
    5  O  1  X    0.000000  -0.137040   0.024523   0.000000   0.000000
    6  O  1  Y   -0.030521   0.187285   0.016757  -0.040770   0.000000
    7  O  1  Z   -0.114697  -0.049837  -0.004459  -0.153215   0.000000
    8  O  1  X    0.000000   0.050528   0.153906   0.000000   0.000000
    9  O  1  Y   -0.053541  -0.069052   0.105169  -0.099037   0.000000
   10  O  1  Z   -0.201207   0.018375  -0.027985  -0.372178   0.000000
   11  O  1  X   -0.000002   3.968668   2.502902  -0.000001  -0.000000
   12  O  1  Y    0.929204  -5.423738   1.710318   0.688607  -0.000001
   13  O  1  Z    3.491922   1.443264  -0.455117   2.587764  -0.000002
   14  O  1 XX    0.000000  -0.005489   0.005013   0.000000   0.000000
   15  O  1 YY    0.005270  -0.009672  -0.004681   0.010025  -0.007133
   16  O  1 ZZ   -0.005270   0.015162  -0.000331  -0.010025   0.007133
   17  O  1 XY   -0.002227   0.009587  -0.001978  -0.004235  -0.006026
   18  O  1 XZ   -0.008367  -0.002551   0.000526  -0.015916  -0.022647
   19  O  1 YZ    0.010625   0.008212   0.001438   0.020211  -0.014380
   20  O  1 XX   -0.000000   0.204544   0.011329  -0.000000  -0.000000
   21  O  1 YY   -0.049982   0.136066  -0.010580  -0.058953   0.034864
   22  O  1 ZZ    0.049982  -0.340610  -0.000749   0.058953  -0.034864
   23  O  1 XY    0.021116   0.050740  -0.004469   0.024906   0.029457
   24  O  1 XZ    0.079352  -0.013502   0.001189   0.093594   0.110697
   25  O  1 YZ   -0.100766  -0.157628   0.003251  -0.118852   0.070287
   26  O  1 XXX   0.000000   0.016107  -0.013126   0.000000  -0.000000
   27  O  1 YYY  -0.009478  -0.001723  -0.005257   0.002872  -0.000529
   28  O  1 ZZZ   0.013817   0.004928  -0.008957   0.005958  -0.000141
   29  O  1 XXY  -0.001591   0.009449  -0.005348  -0.003324   0.000253
   30  O  1 XXZ  -0.005978  -0.002514   0.001423  -0.012491   0.000952
   31  O  1 YYX   0.008464  -0.025803  -0.004354  -0.012715  -0.000173
   32  O  1 YYZ  -0.012560  -0.004098   0.010594   0.004497  -0.000763
   33  O  1 ZZX  -0.008464   0.004193   0.021965   0.012715   0.000173
   34  O  1 ZZY   0.014307  -0.007138   0.012401  -0.000529   0.000456
   35  O  1 XYZ   0.017064   0.009919   0.008703  -0.025635  -0.000349
   36  O  1  S    0.000001   8.267221   0.000001   0.000001   0.000000
   37  O  1  X   -0.000000   0.682764   0.787350   0.000000  -0.000000
   38  O  1  Y    0.190402  -0.933092   0.538023   0.048574  -0.000000
   39  O  1  Z    0.715526   0.248297  -0.143168   0.182540  -0.000000
   40  O  1 XX   -0.000001   0.860081   1.141210   0.000001  -0.000000
   41  O  1 YY   -0.496518   0.760493  -1.065746   0.201214   0.028735
   42  O  1 ZZ    0.496519  -1.620574  -0.075464  -0.201215  -0.028735
   43  O  1 XY    0.209759  -0.129194  -0.450216  -0.085005   0.024279
   44  O  1 XZ    0.788267   0.034381   0.119804  -0.319446   0.091239
   45  O  1 YZ   -1.000997  -0.787377   0.327468   0.405655   0.057932
   46  O  1 XXX  -0.000000   0.195132   0.088542  -0.000000   0.000000
   47  O  1 YYY   0.072907  -0.103472   0.053230   0.006068   0.000876
   48  O  1 ZZZ  -0.140744  -0.108026   0.055689  -0.090783   0.000233
   49  O  1 XXY   0.025165  -0.008005   0.004284   0.031757  -0.000420
   50  O  1 XXZ   0.094568   0.002131  -0.001140   0.119343  -0.001577
   51  O  1 YYX  -0.030618  -0.118187   0.019275   0.076572   0.000287
   52  O  1 YYZ   0.094260   0.142802  -0.073575   0.002456   0.001264
   53  O  1 ZZX   0.030618  -0.143610  -0.138066  -0.076572  -0.000287
   54  O  1 ZZY  -0.122979   0.146827  -0.075700  -0.039898  -0.000756
   55  O  1 XYZ  -0.061726  -0.008407  -0.052030   0.154372   0.000578
   56  H  2  S    0.000000   0.047536   0.004283   0.000000  -0.000000
   57  H  2  S   -0.000000  -5.115678  -2.412072  -0.000001   0.000000
   58  H  2  S   -0.000001  -4.878571  -0.815615  -0.000001   0.000000
   59  H  2  X   -0.000000   0.058631   0.015828   0.000000   0.000000
   60  H  2  Y    0.008464  -0.022441   0.012735  -0.000071  -0.000362
   61  H  2  Z    0.031808   0.005972  -0.003389  -0.000267  -0.001359
   62  H  2  X    0.000001   1.761828   0.104861   0.000000   0.000000
   63  H  2  Y   -0.169754   0.429267  -0.107760  -0.087171  -0.010675
   64  H  2  Z   -0.637933  -0.114227   0.028675  -0.327585  -0.040117
   65  H  2 XX   -0.000000  -0.102012   0.010776  -0.000000   0.000000
   66  H  2 YY   -0.006702   0.054718   0.009133   0.004746   0.011205
   67  H  2 ZZ    0.006702   0.047294  -0.019909  -0.004746  -0.011205
   68  H  2 XY    0.003921  -0.010588  -0.014155   0.006646  -0.004122
   69  H  2 XZ    0.014734   0.002817   0.003767   0.024975  -0.015489
   70  H  2 YZ   -0.013512  -0.002455  -0.009604   0.009567   0.022590
   71  H  2  S   -0.000000  -0.332989  -0.477769  -0.000000   0.000000
   72  H  2  X    0.000001   0.565422   0.151157   0.000001   0.000000
   73  H  2  Y   -0.335096   0.457292  -0.783715  -0.194129  -0.133493
   74  H  2  Z   -1.259280  -0.121685   0.208548  -0.729529  -0.501664
   75  H  2 XX   -0.000001   0.115569  -0.296217  -0.000001  -0.000001
   76  H  2 YY    0.226803  -0.323299  -0.167621  -0.294129  -0.221956
   77  H  2 ZZ   -0.226802   0.207730   0.463838   0.294130   0.221957
   78  H  2 XY    0.268986  -0.335630   0.601838   0.161730   0.231618
   79  H  2 XZ    1.010843   0.089311  -0.160151   0.607773   0.870414
   80  H  2 YZ    0.457243   0.175601   0.208813  -0.592973  -0.447470
   81  H  3  S    0.000000   0.047536  -0.004283   0.000000   0.000000
   82  H  3  S    0.000000  -5.115670   2.412072   0.000001  -0.000000
   83  H  3  S   -0.000000  -4.878567   0.815612  -0.000000  -0.000000
   84  H  3  X   -0.000000   0.002351   0.017700   0.000000  -0.000000
   85  H  3  Y    0.008464  -0.060899   0.010176  -0.000071   0.000362
   86  H  3  Z    0.031808   0.016205  -0.002708  -0.000267   0.001359
   87  H  3  X    0.000000  -1.006063  -0.070180   0.000000  -0.000000
   88  H  3  Y   -0.169754  -1.462127   0.131458  -0.087171   0.010675
   89  H  3  Z   -0.637932   0.389072  -0.034981  -0.327585   0.040117
   90  H  3 XX   -0.000000   0.031843  -0.003310   0.000000  -0.000000
   91  H  3 YY   -0.008421  -0.070286  -0.016105  -0.008906  -0.010239
   92  H  3 ZZ    0.008421   0.038443   0.019415   0.008906   0.010239
   93  H  3 XY    0.002468  -0.063396   0.011209  -0.004888   0.004938
   94  H  3 XZ    0.009276   0.016870  -0.002983  -0.018370   0.018556
   95  H  3 YZ   -0.016978   0.035955   0.011746  -0.017954  -0.020642
   96  H  3  S    0.000000  -0.332989   0.477769   0.000000  -0.000000
   97  H  3  X    0.000001  -0.634615  -0.714225   0.000000  -0.000000
   98  H  3  Y   -0.335095  -0.362733   0.398951  -0.194128   0.133494
   99  H  3  Z   -1.259280   0.096523  -0.106161  -0.729528   0.501665
  100  H  3 XX    0.000001  -0.499557  -0.114308  -0.000001   0.000000
  101  H  3 YY   -0.348883   0.251150   0.550999  -0.353261   0.439496
  102  H  3 ZZ    0.348882   0.248407  -0.436692   0.353262  -0.439496
  103  H  3 XY   -0.217412  -0.092959  -0.439883   0.111767  -0.047819
  104  H  3 XZ   -0.817030   0.024736   0.117054   0.420018  -0.179700
  105  H  3 YZ   -0.703361  -0.000907  -0.326612  -0.712187   0.886039

                     31         32         33         34         35
                    0.9310     0.9656     1.0271     1.0486     1.0850
                     A          A          A          A          A   
    1  O  1  S    0.000000   0.008227   0.063878  -0.000000   0.000000
    2  O  1  S   -0.000000  -0.021460  -0.104908   0.000000  -0.000000
    3  O  1  S    0.000000   0.002182  -0.030202   0.000000   0.000000
    4  O  1  S   -0.000003  -0.460803   6.079903  -0.000016   0.000000
    5  O  1  X   -0.083341  -0.047031  -0.075561   0.210230  -0.000000
    6  O  1  Y   -0.056950   0.064274   0.103265   0.143657   0.043151
    7  O  1  Z    0.015154  -0.017103  -0.027479  -0.038227   0.162160
    8  O  1  X   -0.075935  -0.099540   0.040139  -0.165005  -0.000000
    9  O  1  Y   -0.051889   0.136035  -0.054856  -0.112753   0.151138
   10  O  1  Z    0.013808  -0.036199   0.014597   0.030004   0.567972
   11  O  1  X    4.718625   0.194562  -0.590484   0.793566   0.000000
   12  O  1  Y    3.224401  -0.265896   0.806982   0.542268  -0.169026
   13  O  1  Z   -0.858012   0.070755  -0.214739  -0.144297  -0.635195
   14  O  1 XX   -0.002904  -0.001175  -0.000847  -0.007546   0.000000
   15  O  1 YY    0.002712  -0.010550  -0.000612   0.007047   0.002698
   16  O  1 ZZ    0.000192   0.011725   0.001458   0.000499  -0.002698
   17  O  1 XY    0.001146   0.017474  -0.000121   0.002977  -0.001140
   18  O  1 XZ   -0.000305  -0.004650   0.000032  -0.000792  -0.004284
   19  O  1 YZ   -0.000833   0.007366   0.000685  -0.002165   0.005440
   20  O  1 XX    0.043337   0.014002   0.039980  -0.179447  -0.000000
   21  O  1 YY   -0.040471   0.049725   0.003849   0.167580   0.000486
   22  O  1 ZZ   -0.002866  -0.063727  -0.043829   0.011866  -0.000486
   23  O  1 XY   -0.017097  -0.070020   0.051287   0.070793  -0.000205
   24  O  1 XZ    0.004549   0.018633  -0.013647  -0.018838  -0.000772
   25  O  1 YZ    0.012436  -0.037517  -0.015766  -0.051492   0.000980
   26  O  1 XXX   0.004813   0.001369   0.007610  -0.014685   0.000000
   27  O  1 YYY   0.013425  -0.005155  -0.002670  -0.018713   0.001190
   28  O  1 ZZZ   0.000225  -0.009751  -0.001441  -0.006606   0.000581
   29  O  1 XXY  -0.018606  -0.006623   0.001712   0.016971  -0.000669
   30  O  1 XXZ   0.004951   0.001762  -0.000456  -0.004516  -0.002514
   31  O  1 YYX  -0.004933   0.009595  -0.007823   0.002417  -0.003380
   32  O  1 YYZ  -0.005253   0.011320   0.002388   0.013379   0.001735
   33  O  1 ZZX  -0.001524  -0.011431  -0.002387   0.017284   0.003380
   34  O  1 ZZY   0.000595   0.013539   0.001870   0.008134  -0.000928
   35  O  1 XYZ   0.001127  -0.006953   0.001797   0.004916  -0.006814
   36  O  1  S   -0.000003   3.186076   6.304204  -0.000017   0.000000
   37  O  1  X    2.339954   0.309487   0.106424  -0.630882  -0.000000
   38  O  1  Y    1.598971  -0.422957  -0.145446  -0.431103   0.051436
   39  O  1  Z   -0.425486   0.112550   0.038703   0.114716   0.193294
   40  O  1 XX    0.588124  -0.850374  -0.543315   1.704473   0.000000
   41  O  1 YY   -0.549233  -0.696937  -0.277210  -1.591759   0.315582
   42  O  1 ZZ   -0.038891   1.547311   0.820525  -0.112714  -0.315582
   43  O  1 XY   -0.232020   0.027753  -0.287945  -0.672426  -0.133321
   44  O  1 XZ    0.061741  -0.007387   0.076621   0.178935  -0.501014
   45  O  1 YZ    0.168761   0.742133   0.363002   0.489094   0.636222
   46  O  1 XXX  -0.016733  -0.036626  -0.131323   0.082768   0.000000
   47  O  1 YYY  -0.148489   0.038339   0.050071   0.112422  -0.035112
   48  O  1 ZZZ   0.026314   0.058692   0.032972   0.035381   0.076162
   49  O  1 XXY   0.246825   0.029554  -0.023623  -0.108093  -0.015263
   50  O  1 XXZ  -0.065680  -0.007864   0.006286   0.028764  -0.057357
   51  O  1 YYX   0.074978  -0.022342   0.125589  -0.017572   0.006361
   52  O  1 YYZ   0.030376  -0.070879  -0.050523  -0.076233  -0.044825
   53  O  1 ZZX  -0.052528   0.071482   0.050600  -0.093473  -0.006361
   54  O  1 ZZY  -0.047605  -0.080991  -0.043555  -0.042737   0.062370
   55  O  1 XYZ  -0.042164   0.031026  -0.024798  -0.025099   0.012823
   56  H  2  S    0.036441   0.018618   0.105134  -0.128442   0.000000
   57  H  2  S   -1.752538   1.549410   1.345219  -1.685866   0.000001
   58  H  2  S   -1.278962  -2.299050  -5.418804   7.945315  -0.000000
   59  H  2  X    0.011411  -0.016796  -0.039674   0.013986   0.000000
   60  H  2  Y    0.040632   0.003002   0.009465   0.016039  -0.005487
   61  H  2  Z   -0.010812  -0.000799  -0.002519  -0.004268  -0.020619
   62  H  2  X    0.363951   0.120449   0.697138  -1.102615  -0.000000
   63  H  2  Y   -0.810966  -0.022268  -0.060008   0.087922   0.129799
   64  H  2  Z    0.215799   0.005926   0.015969  -0.023397   0.487783
   65  H  2 XX   -0.018984  -0.008434  -0.005444   0.063053   0.000000
   66  H  2 YY   -0.011314  -0.013555   0.006066  -0.031540   0.002166
   67  H  2 ZZ    0.030298   0.021989  -0.000622  -0.031513  -0.002166
   68  H  2 XY    0.015128   0.008367  -0.001044  -0.013550  -0.015568
   69  H  2 XZ   -0.004025  -0.002226   0.000278   0.003606  -0.058505
   70  H  2 YZ    0.013760   0.011754  -0.002212   0.000009   0.004367
   71  H  2  S   -0.692154  -0.119619  -0.339305   0.885523  -0.000000
   72  H  2  X   -0.514501   0.572101   2.827920  -3.657213   0.000000
   73  H  2  Y   -3.147748   0.292623  -0.309846  -0.433089  -0.019090
   74  H  2  Z    0.837618  -0.077867   0.082453   0.115243  -0.071739
   75  H  2 XX    0.344509   0.073099  -1.406852   1.546134  -0.000001
   76  H  2 YY    0.202184   0.574336   0.650104  -0.636513  -0.123354
   77  H  2 ZZ   -0.546693  -0.647435   0.756748  -0.909621   0.123355
   78  H  2 XY    1.531075  -0.447610   0.217104   0.057300   0.157812
   79  H  2 XZ   -0.407419   0.119110  -0.057774  -0.015245   0.593054
   80  H  2 YZ   -0.247639  -0.404018   0.035265  -0.090312  -0.248686
   81  H  3  S   -0.036441   0.018618   0.105134   0.128442  -0.000000
   82  H  3  S    1.752540   1.549411   1.345227   1.685859  -0.000000
   83  H  3  S    1.278966  -2.299055  -5.418842  -7.945285  -0.000000
   84  H  3  X    0.043445   0.002670   0.003990   0.020310   0.000000
   85  H  3  Y   -0.003147   0.016304   0.039302   0.007396  -0.005487
   86  H  3  Z    0.000837  -0.004338  -0.010458  -0.001968  -0.020619
   87  H  3  X   -0.669881  -0.018424  -0.173829  -0.281748  -0.000000
   88  H  3  Y    0.601914  -0.117165  -0.655173  -1.033901   0.129799
   89  H  3  Z   -0.160170   0.031178   0.174342   0.275122   0.487782
   90  H  3 XX    0.006464  -0.010681   0.004652   0.028664  -0.000000
   91  H  3 YY    0.023006  -0.011457  -0.003363  -0.054112   0.025290
   92  H  3 ZZ   -0.029470   0.022138  -0.001290   0.025448  -0.025290
   93  H  3 XY   -0.010188   0.009253  -0.005027  -0.022633   0.003969
   94  H  3 XZ    0.002711  -0.002462   0.001338   0.006023   0.014916
   95  H  3 YZ   -0.017353   0.011109   0.000686   0.026309   0.050985
   96  H  3  S    0.692154  -0.119619  -0.339309  -0.885521   0.000000
   97  H  3  X   -3.242504  -0.476186  -0.640331  -1.641566   0.000000
   98  H  3  Y    0.580458  -0.423709  -2.679830  -3.187737  -0.019090
   99  H  3  Z   -0.154463   0.112749   0.713105   0.848259  -0.071739
  100  H  3 XX   -1.131119   0.349286   0.536629   0.343232  -0.000000
  101  H  3 YY    0.532410   0.316411  -1.164864  -1.127912  -0.290158
  102  H  3 ZZ    0.598709  -0.665697   0.628235   0.784680   0.290158
  103  H  3 XY   -1.220750  -0.556568  -0.549617  -0.802668   0.016880
  104  H  3 XZ    0.324841   0.148104   0.146253   0.213590   0.063433
  105  H  3 YZ    0.021923  -0.324766   0.592946   0.632460  -0.584967

                     36         37         38         39         40
                    1.1128     1.1783     1.1846     1.2558     1.5154
                     A          A          A          A          A   
    1  O  1  S    0.000000   0.000000   0.015245  -0.000000  -0.000000
    2  O  1  S    0.000000   0.000000   0.080987  -0.000000  -0.000000
    3  O  1  S    0.000000  -0.000000  -0.018865  -0.000000   0.000000
    4  O  1  S   -0.000001   0.000000   2.893373  -0.000000  -0.000000
    5  O  1  X    0.032106  -0.000000  -0.042596   0.095042  -0.000000
    6  O  1  Y    0.021939   0.000000   0.058213   0.064945  -0.000000
    7  O  1  Z   -0.005838   0.000000  -0.015490  -0.017282  -0.000000
    8  O  1  X    0.123871   0.000000  -0.024665  -0.335880  -0.000000
    9  O  1  Y    0.084646   0.000000   0.033709  -0.229518   0.000000
   10  O  1  Z   -0.022524   0.000000  -0.008970   0.061075   0.000000
   11  O  1  X    0.111135   0.000001   0.269046 -10.435206   0.000000
   12  O  1  Y    0.075942   0.000000  -0.367678  -7.130734  -0.000000
   13  O  1  Z   -0.020208  -0.000000   0.097840   1.897487  -0.000003
   14  O  1 XX   -0.001816   0.000000  -0.017158   0.043861   0.000000
   15  O  1 YY    0.001696  -0.005836   0.004689  -0.040960  -0.010721
   16  O  1 ZZ    0.000120   0.005836   0.012469  -0.002900   0.010721
   17  O  1 XY    0.000717  -0.004931  -0.033543  -0.017303  -0.009058
   18  O  1 XZ   -0.000191  -0.018529   0.008926   0.004604  -0.034041
   19  O  1 YZ   -0.000521  -0.011765   0.002573   0.012586  -0.021614
   20  O  1 XX    0.031202  -0.000000   0.131266  -0.586042  -0.000000
   21  O  1 YY   -0.029139   0.024651   0.019394   0.547289   0.026449
   22  O  1 ZZ   -0.002063  -0.024651  -0.150660   0.038753  -0.026449
   23  O  1 XY   -0.012309   0.020828   0.156097   0.231198   0.022347
   24  O  1 XZ    0.003276   0.078270  -0.041537  -0.061523   0.083979
   25  O  1 YZ    0.008953   0.049697  -0.056234  -0.168164   0.053322
   26  O  1 XXX   0.000824   0.000000   0.006021  -0.004818   0.000000
   27  O  1 YYY  -0.017279   0.003587  -0.004641  -0.003880   0.011124
   28  O  1 ZZZ   0.005248   0.000954  -0.006275  -0.002769   0.002960
   29  O  1 XXY   0.031836  -0.001718  -0.002395   0.001526  -0.005327
   30  O  1 XXZ  -0.008472  -0.006454   0.000637  -0.000406  -0.020018
   31  O  1 YYX   0.010274   0.001174  -0.000238  -0.000490   0.003640
   32  O  1 YYZ   0.001430   0.005174   0.007781   0.004121   0.016047
   33  O  1 ZZX  -0.011380  -0.001174  -0.007840   0.006955  -0.003640
   34  O  1 ZZY  -0.008654  -0.003094   0.008622   0.003680  -0.009597
   35  O  1 XYZ  -0.007161   0.002366  -0.002514   0.002462   0.007338
   36  O  1  S   -0.000001   0.000000   1.404666  -0.000000   0.000000
   37  O  1  X    0.013138   0.000000   0.060153  -1.816957   0.000000
   38  O  1  Y    0.008978   0.000000  -0.082206  -1.241589  -0.000000
   39  O  1  Z   -0.002389   0.000000   0.021875   0.330387  -0.000000
   40  O  1 XX    1.909628   0.000002  -0.063860  -4.104523  -0.000003
   41  O  1 YY   -1.783350  -0.351014  -0.034806   3.833103   0.677178
   42  O  1 ZZ   -0.126278   0.351012   0.098666   0.271420  -0.677175
   43  O  1 XY   -0.753363  -0.296571  -0.029806   1.619266   0.572147
   44  O  1 XZ    0.200472  -1.114510   0.007931  -0.430892   2.150118
   45  O  1 YZ    0.547964  -0.707655   0.044137  -1.177784   1.365214
   46  O  1 XXX   0.038097  -0.000000   0.069529  -0.184569  -0.000001
   47  O  1 YYY   0.225196  -0.012535  -0.019374  -0.229928  -0.170472
   48  O  1 ZZZ  -0.029872  -0.003336  -0.002966  -0.084427  -0.045363
   49  O  1 XXY  -0.360033   0.006003   0.023088   0.203889   0.081636
   50  O  1 XXZ   0.095805   0.022559  -0.006144  -0.054256   0.306784
   51  O  1 YYX  -0.106598  -0.004102  -0.083288   0.027388  -0.055782
   52  O  1 YYZ  -0.055727  -0.018084   0.010124   0.167526  -0.245924
   53  O  1 ZZX   0.055485   0.004102  -0.009995   0.220237   0.055783
   54  O  1 ZZY   0.057902   0.010815   0.002905   0.104592   0.147076
   55  O  1 XYZ   0.053598  -0.008270   0.024237   0.063772  -0.112459
   56  H  2  S   -0.002854  -0.000000  -0.030213   0.083088  -0.000000
   57  H  2  S   -2.158154  -0.000001  -1.926614   9.636885  -0.000000
   58  H  2  S    2.688978  -0.000001  -0.815547  11.051136  -0.000001
   59  H  2  X    0.019873   0.000000   0.024827  -0.112904  -0.000000
   60  H  2  Y    0.012006  -0.003965  -0.016933  -0.016157   0.015045
   61  H  2  Z   -0.003195  -0.014901   0.004506   0.004299   0.056538
   62  H  2  X   -0.006772   0.000000   0.766486  -2.158186   0.000002
   63  H  2  Y    0.582875   0.029761  -0.003635  -0.073491  -0.610931
   64  H  2  Z   -0.155103   0.111841   0.000968   0.019554  -2.295862
   65  H  2 XX    0.016171  -0.000000  -0.047937   0.147207  -0.000000
   66  H  2 YY   -0.024129  -0.023486   0.005440  -0.074991  -0.000611
   67  H  2 ZZ    0.007958   0.023486   0.042496  -0.072216   0.000611
   68  H  2 XY   -0.039346  -0.002815  -0.025199   0.007159   0.018473
   69  H  2 XZ    0.010470  -0.010577   0.006705  -0.001905   0.069422
   70  H  2 YZ    0.010611  -0.047349   0.012254   0.000918  -0.001232
[...]
           KJ/MOL    KJ/MOL    KJ/MOL   J/MOL-K   J/MOL-K   J/MOL-K
 ELEC.      0.000     0.000     0.000     0.000     0.000     0.000
 TRANS.     4.989     8.314   -52.049    12.472    20.786   150.908
 ROT.       4.989     4.989   -16.147    12.472    12.472    52.840
 VIB.      59.480    59.480    59.438     0.582     0.582     0.105
 TOTAL     69.458    72.783    -8.758    25.525    33.840   203.854
 VIB. THERMAL CORRECTION E(T)-E(0) = H(T)-H(0) =    36.437 J/MOL

              E         H         G         CV        CP        S
         KCAL/MOL  KCAL/MOL  KCAL/MOL CAL/MOL-K CAL/MOL-K CAL/MOL-K
 ELEC.      0.000     0.000     0.000     0.000     0.000     0.000
 TRANS.     1.192     1.987   -12.440     2.981     4.968    36.068
 ROT.       1.192     1.192    -3.859     2.981     2.981    12.629
 VIB.      14.216    14.216    14.206     0.139     0.139     0.025
 TOTAL     16.601    17.396    -2.093     6.101     8.088    48.722
 VIB. THERMAL CORRECTION E(T)-E(0) = H(T)-H(0) =     8.709 CAL/MOL

     -------------------------------
     THERMOCHEMISTRY AT T=  400.00 K
     -------------------------------

 USING IDEAL GAS, RIGID ROTOR, HARMONIC NORMAL MODE APPROXIMATIONS.
 P=  1.01325E+05 PASCAL.
 ALL FREQUENCIES ARE SCALED BY   0.89500
 THE MOMENTS OF INERTIA ARE (IN AMU*BOHR**2)
      2.10182     4.09291     6.19473
 THE ROTATIONAL SYMMETRY NUMBER IS  1.0
 THE ROTATIONAL CONSTANTS ARE (IN GHZ)
    857.87194   440.53911   291.06818
 THE HARMONIC ZERO POINT ENERGY IS (SCALED BY   0.895)
        0.020264 HARTREE/MOLECULE     4447.354927 CM**-1/MOLECULE 
       12.715639 KCAL/MOL               53.202232 KJ/MOL

               Q               LN Q
 ELEC.     1.00000E+00       0.000000
 TRANS.    6.26336E+06      15.650228
 ROT.      1.28411E+02       4.855240
 VIB.      1.00336E+00       0.003358
 TOT.      8.06993E+08      20.508825

              E         H         G         CV        CP        S
           KJ/MOL    KJ/MOL    KJ/MOL   J/MOL-K   J/MOL-K   J/MOL-K
 ELEC.      0.000     0.000     0.000     0.000     0.000     0.000
 TRANS.     4.989     8.314   -52.049    12.472    20.786   150.908
 ROT.       4.989     4.989   -16.147    12.472    12.472    52.840
 VIB.      53.266    53.266    53.191     0.916     0.916     0.188
 TOTAL     63.243    66.569   -15.005    25.859    34.174   203.936
 VIB. THERMAL CORRECTION E(T)-E(0) = H(T)-H(0) =    63.847 J/MOL

              E         H         G         CV        CP        S
         KCAL/MOL  KCAL/MOL  KCAL/MOL CAL/MOL-K CAL/MOL-K CAL/MOL-K
 ELEC.      0.000     0.000     0.000     0.000     0.000     0.000
 TRANS.     1.192     1.987   -12.440     2.981     4.968    36.068
 ROT.       1.192     1.192    -3.859     2.981     2.981    12.629
 VIB.      12.731    12.731    12.713     0.219     0.219     0.045
 TOTAL     15.116    15.910    -3.586     6.180     8.168    48.742
 VIB. THERMAL CORRECTION E(T)-E(0) = H(T)-H(0) =    15.260 CAL/MOL

     -------------------------------
     THERMOCHEMISTRY AT T=  800.00 K
     -------------------------------

 USING IDEAL GAS, RIGID ROTOR, HARMONIC NORMAL MODE APPROXIMATIONS.
 P=  1.01325E+05 PASCAL.
 ALL FREQUENCIES ARE SCALED BY   1.00000
 THE MOMENTS OF INERTIA ARE (IN AMU*BOHR**2)
      2.10182     4.09291     6.19473
 THE ROTATIONAL SYMMETRY NUMBER IS  1.0
 THE ROTATIONAL CONSTANTS ARE (IN GHZ)
    857.87194   440.53911   291.06818
 THE HARMONIC ZERO POINT ENERGY IS (SCALED BY   1.000)
        0.022641 HARTREE/MOLECULE     4969.111650 CM**-1/MOLECULE 
       14.207417 KCAL/MOL               59.443834 KJ/MOL

               Q               LN Q
 ELEC.     1.00000E+00       0.000000
 TRANS.    3.54309E+07      17.383096
 ROT.      3.63202E+02       5.894960
 VIB.      1.04456E+00       0.043598
 TOT.      1.34421E+10      23.321655

              E         H         G         CV        CP        S
           KJ/MOL    KJ/MOL    KJ/MOL   J/MOL-K   J/MOL-K   J/MOL-K
 ELEC.      0.000     0.000     0.000     0.000     0.000     0.000
 TRANS.     9.977    16.629  -115.624    12.472    20.786   165.316
 ROT.       9.977     9.977   -39.210    12.472    12.472    61.485
 VIB.      60.422    60.422    59.154     4.381     4.381     1.586
 TOTAL     80.377    87.028   -95.681    29.324    37.638   228.386
 VIB. THERMAL CORRECTION E(T)-E(0) = H(T)-H(0) =   978.421 J/MOL

              E         H         G         CV        CP        S
         KCAL/MOL  KCAL/MOL  KCAL/MOL CAL/MOL-K CAL/MOL-K CAL/MOL-K
 ELEC.      0.000     0.000     0.000     0.000     0.000     0.000
 TRANS.     2.385     3.974   -27.635     2.981     4.968    39.512
 ROT.       2.385     2.385    -9.372     2.981     2.981    14.695
 VIB.      14.441    14.441    14.138     1.047     1.047     0.379
 TOTAL     19.211    20.800   -22.868     7.009     8.996    54.586
 VIB. THERMAL CORRECTION E(T)-E(0) = H(T)-H(0) =   233.848 CAL/MOL

     -------------------------------
     THERMOCHEMISTRY AT T=  800.00 K
     -------------------------------

 USING IDEAL GAS, RIGID ROTOR, HARMONIC NORMAL MODE APPROXIMATIONS.
 P=  1.01325E+05 PASCAL.
 ALL FREQUENCIES ARE SCALED BY   0.89500
 THE MOMENTS OF INERTIA ARE (IN AMU*BOHR**2)
      2.10182     4.09291     6.19473
 THE ROTATIONAL SYMMETRY NUMBER IS  1.0
 THE ROTATIONAL CONSTANTS ARE (IN GHZ)
    857.87194   440.53911   291.06818
 THE HARMONIC ZERO POINT ENERGY IS (SCALED BY   0.895)
        0.020264 HARTREE/MOLECULE     4447.354927 CM**-1/MOLECULE 
       12.715639 KCAL/MOL               53.202232 KJ/MOL

               Q               LN Q
 ELEC.     1.00000E+00       0.000000
 TRANS.    3.54309E+07      17.383096
 ROT.      3.63202E+02       5.894960
 VIB.      1.06440E+00       0.062407
 TOT.      1.36973E+10      23.340464

              E         H         G         CV        CP        S
           KJ/MOL    KJ/MOL    KJ/MOL   J/MOL-K   J/MOL-K   J/MOL-K
 ELEC.      0.000     0.000     0.000     0.000     0.000     0.000
 TRANS.     9.977    16.629  -115.624    12.472    20.786   165.316
 ROT.       9.977     9.977   -39.210    12.472    12.472    61.485
 VIB.      54.489    54.489    52.787     5.409     5.409     2.127
 TOTAL     74.444    81.095  -102.047    30.352    38.667   228.928
 VIB. THERMAL CORRECTION E(T)-E(0) = H(T)-H(0) =  1286.688 J/MOL

              E         H         G         CV        CP        S
         KCAL/MOL  KCAL/MOL  KCAL/MOL CAL/MOL-K CAL/MOL-K CAL/MOL-K
 ELEC.      0.000     0.000     0.000     0.000     0.000     0.000
 TRANS.     2.385     3.974   -27.635     2.981     4.968    39.512
 ROT.       2.385     2.385    -9.372     2.981     2.981    14.695
 VIB.      13.023    13.023    12.616     1.293     1.293     0.508
 TOTAL     17.792    19.382   -24.390     7.254     9.242    54.715
 VIB. THERMAL CORRECTION E(T)-E(0) = H(T)-H(0) =   307.526 CAL/MOL

     -------------------------------
     THERMOCHEMISTRY AT T= 1200.00 K
     -------------------------------

 USING IDEAL GAS, RIGID ROTOR, HARMONIC NORMAL MODE APPROXIMATIONS.
 P=  1.01325E+05 PASCAL.
 ALL FREQUENCIES ARE SCALED BY   1.00000
 THE MOMENTS OF INERTIA ARE (IN AMU*BOHR**2)
      2.10182     4.09291     6.19473
 THE ROTATIONAL SYMMETRY NUMBER IS  1.0
 THE ROTATIONAL CONSTANTS ARE (IN GHZ)
    857.87194   440.53911   291.06818
 THE HARMONIC ZERO POINT ENERGY IS (SCALED BY   1.000)
        0.022641 HARTREE/MOLECULE     4969.111650 CM**-1/MOLECULE 
       14.207417 KCAL/MOL               59.443834 KJ/MOL

               Q               LN Q
 ELEC.     1.00000E+00       0.000000
 TRANS.    9.76362E+07      18.396758
 ROT.      6.67246E+02       6.503158
 VIB.      1.15319E+00       0.142530
 TOT.      7.51271E+10      25.042447

              E         H         G         CV        CP        S
           KJ/MOL    KJ/MOL    KJ/MOL   J/MOL-K   J/MOL-K   J/MOL-K
 ELEC.      0.000     0.000     0.000     0.000     0.000     0.000
 TRANS.    14.966    24.943  -183.550    12.472    20.786   173.744
 ROT.      14.966    14.966   -64.884    12.472    12.472    66.542
 VIB.      63.060    63.060    58.022     8.813     8.813     4.199
 TOTAL     92.992   102.969  -190.412    33.756    42.071   244.484
 VIB. THERMAL CORRECTION E(T)-E(0) = H(T)-H(0) =  3616.405 J/MOL

              E         H         G         CV        CP        S
         KCAL/MOL  KCAL/MOL  KCAL/MOL CAL/MOL-K CAL/MOL-K CAL/MOL-K
 ELEC.      0.000     0.000     0.000     0.000     0.000     0.000
 TRANS.     3.577     5.962   -43.869     2.981     4.968    41.526
 ROT.       3.577     3.577   -15.508     2.981     2.981    15.904
 VIB.      15.072    15.072    13.868     2.106     2.106     1.004
 TOTAL     22.226    24.610   -45.510     8.068    10.055    58.433
 VIB. THERMAL CORRECTION E(T)-E(0) = H(T)-H(0) =   864.342 CAL/MOL

     -------------------------------
     THERMOCHEMISTRY AT T= 1200.00 K
     -------------------------------

 USING IDEAL GAS, RIGID ROTOR, HARMONIC NORMAL MODE APPROXIMATIONS.
 P=  1.01325E+05 PASCAL.
 ALL FREQUENCIES ARE SCALED BY   0.89500
 THE MOMENTS OF INERTIA ARE (IN AMU*BOHR**2)
      2.10182     4.09291     6.19473
 THE ROTATIONAL SYMMETRY NUMBER IS  1.0
 THE ROTATIONAL CONSTANTS ARE (IN GHZ)
    857.87194   440.53911   291.06818
 THE HARMONIC ZERO POINT ENERGY IS (SCALED BY   0.895)
        0.020264 HARTREE/MOLECULE     4447.354927 CM**-1/MOLECULE 
       12.715639 KCAL/MOL               53.202232 KJ/MOL

               Q               LN Q
 ELEC.     1.00000E+00       0.000000
 TRANS.    9.76362E+07      18.396758
 ROT.      6.67246E+02       6.503158
 VIB.      1.20590E+00       0.187229
 TOT.      7.85613E+10      25.087145

              E         H         G         CV        CP        S
           KJ/MOL    KJ/MOL    KJ/MOL   J/MOL-K   J/MOL-K   J/MOL-K
 ELEC.      0.000     0.000     0.000     0.000     0.000     0.000
 TRANS.    14.966    24.943  -183.550    12.472    20.786   173.744
 ROT.      14.966    14.966   -64.884    12.472    12.472    66.542
 VIB.      57.644    57.644    51.334    10.301    10.301     5.258
 TOTAL     87.576    97.553  -197.100    35.244    43.559   245.544
 VIB. THERMAL CORRECTION E(T)-E(0) = H(T)-H(0) =  4441.791 J/MOL

              E         H         G         CV        CP        S
         KCAL/MOL  KCAL/MOL  KCAL/MOL CAL/MOL-K CAL/MOL-K CAL/MOL-K
 ELEC.      0.000     0.000     0.000     0.000     0.000     0.000
 TRANS.     3.577     5.962   -43.869     2.981     4.968    41.526
 ROT.       3.577     3.577   -15.508     2.981     2.981    15.904
 VIB.      13.777    13.777    12.269     2.462     2.462     1.257
 TOTAL     20.931    23.316   -47.108     8.424    10.411    58.686
 VIB. THERMAL CORRECTION E(T)-E(0) = H(T)-H(0) =  1061.614 CAL/MOL

     -------------------------------
     THERMOCHEMISTRY AT T= 1600.00 K
     -------------------------------

 USING IDEAL GAS, RIGID ROTOR, HARMONIC NORMAL MODE APPROXIMATIONS.
 P=  1.01325E+05 PASCAL.
 ALL FREQUENCIES ARE SCALED BY   1.00000
 THE MOMENTS OF INERTIA ARE (IN AMU*BOHR**2)
      2.10182     4.09291     6.19473
 THE ROTATIONAL SYMMETRY NUMBER IS  1.0
 THE ROTATIONAL CONSTANTS ARE (IN GHZ)
    857.87194   440.53911   291.06818
 THE HARMONIC ZERO POINT ENERGY IS (SCALED BY   1.000)
        0.022641 HARTREE/MOLECULE     4969.111650 CM**-1/MOLECULE 
       14.207417 KCAL/MOL               59.443834 KJ/MOL

               Q               LN Q
 ELEC.     1.00000E+00       0.000000
 TRANS.    2.00428E+08      19.115964
 ROT.      1.02729E+03       6.934681
 VIB.      1.32192E+00       0.279085
 TOT.      2.72180E+11      26.329730

              E         H         G         CV        CP        S
           KJ/MOL    KJ/MOL    KJ/MOL   J/MOL-K   J/MOL-K   J/MOL-K
 ELEC.      0.000     0.000     0.000     0.000     0.000     0.000
 TRANS.    19.955    33.258  -254.301    12.472    20.786   179.724
 ROT.      19.955    19.955   -92.252    12.472    12.472    70.129
 VIB.      67.405    67.405    55.731    12.762    12.762     7.296
 TOTAL    107.314   120.617  -290.822    37.705    46.020   257.149
 VIB. THERMAL CORRECTION E(T)-E(0) = H(T)-H(0) =  7960.739 J/MOL

              E         H         G         CV        CP        S
         KCAL/MOL  KCAL/MOL  KCAL/MOL CAL/MOL-K CAL/MOL-K CAL/MOL-K
 ELEC.      0.000     0.000     0.000     0.000     0.000     0.000
 TRANS.     4.769     7.949   -60.779     2.981     4.968    42.955
 ROT.       4.769     4.769   -22.049     2.981     2.981    16.761
 VIB.      16.110    16.110    13.320     3.050     3.050     1.744
 TOTAL     25.649    28.828   -69.508     9.012    10.999    61.460
 VIB. THERMAL CORRECTION E(T)-E(0) = H(T)-H(0) =  1902.662 CAL/MOL

     -------------------------------
     THERMOCHEMISTRY AT T= 1600.00 K
     -------------------------------

 USING IDEAL GAS, RIGID ROTOR, HARMONIC NORMAL MODE APPROXIMATIONS.
 P=  1.01325E+05 PASCAL.
 ALL FREQUENCIES ARE SCALED BY   0.89500
 THE MOMENTS OF INERTIA ARE (IN AMU*BOHR**2)
      2.10182     4.09291     6.19473
 THE ROTATIONAL SYMMETRY NUMBER IS  1.0
 THE ROTATIONAL CONSTANTS ARE (IN GHZ)
    857.87194   440.53911   291.06818
 THE HARMONIC ZERO POINT ENERGY IS (SCALED BY   0.895)
        0.020264 HARTREE/MOLECULE     4447.354927 CM**-1/MOLECULE 
       12.715639 KCAL/MOL               53.202232 KJ/MOL

               Q               LN Q
 ELEC.     1.00000E+00       0.000000
 TRANS.    2.00428E+08      19.115964
 ROT.      1.02729E+03       6.934681
 VIB.      1.42104E+00       0.351391
 TOT.      2.92589E+11      26.402036

              E         H         G         CV        CP        S
           KJ/MOL    KJ/MOL    KJ/MOL   J/MOL-K   J/MOL-K   J/MOL-K
 ELEC.      0.000     0.000     0.000     0.000     0.000     0.000
 TRANS.    19.955    33.258  -254.301    12.472    20.786   179.724
 ROT.      19.955    19.955   -92.252    12.472    12.472    70.129
 VIB.      62.602    62.602    48.528    14.286    14.286     8.797
 TOTAL    102.511   115.814  -298.025    39.229    47.543   258.650
 VIB. THERMAL CORRECTION E(T)-E(0) = H(T)-H(0) =  9399.931 J/MOL

              E         H         G         CV        CP        S
         KCAL/MOL  KCAL/MOL  KCAL/MOL CAL/MOL-K CAL/MOL-K CAL/MOL-K
 ELEC.      0.000     0.000     0.000     0.000     0.000     0.000
 TRANS.     4.769     7.949   -60.779     2.981     4.968    42.955
 ROT.       4.769     4.769   -22.049     2.981     2.981    16.761
 VIB.      14.962    14.962    11.598     3.414     3.414     2.102
 TOTAL     24.501    27.680   -71.230     9.376    11.363    61.819
 VIB. THERMAL CORRECTION E(T)-E(0) = H(T)-H(0) =  2246.638 CAL/MOL

     -------------------------------
     THERMOCHEMISTRY AT T= 2000.00 K
     -------------------------------

 USING IDEAL GAS, RIGID ROTOR, HARMONIC NORMAL MODE APPROXIMATIONS.
 P=  1.01325E+05 PASCAL.
 ALL FREQUENCIES ARE SCALED BY   1.00000
 THE MOMENTS OF INERTIA ARE (IN AMU*BOHR**2)
      2.10182     4.09291     6.19473
 THE ROTATIONAL SYMMETRY NUMBER IS  1.0
 THE ROTATIONAL CONSTANTS ARE (IN GHZ)
    857.87194   440.53911   291.06818
 THE HARMONIC ZERO POINT ENERGY IS (SCALED BY   1.000)
        0.022641 HARTREE/MOLECULE     4969.111650 CM**-1/MOLECULE 
       14.207417 KCAL/MOL               59.443834 KJ/MOL

               Q               LN Q
 ELEC.     1.00000E+00       0.000000
 TRANS.    3.50133E+08      19.673822
 ROT.      1.43568E+03       7.269397
 VIB.      1.54834E+00       0.437183
 TOT.      7.78319E+11      27.380402

              E         H         G         CV        CP        S
           KJ/MOL    KJ/MOL    KJ/MOL   J/MOL-K   J/MOL-K   J/MOL-K
 ELEC.      0.000     0.000     0.000     0.000     0.000     0.000
 TRANS.    24.943    41.572  -327.152    12.472    20.786   184.362
 ROT.      24.943    24.943  -120.881    12.472    12.472    72.912
 VIB.      73.140    73.140    52.174    15.754    15.754    10.483
 TOTAL    123.026   139.655  -395.860    40.698    49.012   267.757
 VIB. THERMAL CORRECTION E(T)-E(0) = H(T)-H(0) = 13695.878 J/MOL

              E         H         G         CV        CP        S
         KCAL/MOL  KCAL/MOL  KCAL/MOL CAL/MOL-K CAL/MOL-K CAL/MOL-K
 ELEC.      0.000     0.000     0.000     0.000     0.000     0.000
 TRANS.     5.962     9.936   -78.191     2.981     4.968    44.064
 ROT.       5.962     5.962   -28.891     2.981     2.981    17.426
 VIB.      17.481    17.481    12.470     3.765     3.765     2.505
 TOTAL     29.404    33.378   -94.613     9.727    11.714    63.996
 VIB. THERMAL CORRECTION E(T)-E(0) = H(T)-H(0) =  3273.394 CAL/MOL

     -------------------------------
     THERMOCHEMISTRY AT T= 2000.00 K
     -------------------------------

 USING IDEAL GAS, RIGID ROTOR, HARMONIC NORMAL MODE APPROXIMATIONS.
 P=  1.01325E+05 PASCAL.
 ALL FREQUENCIES ARE SCALED BY   0.89500
 THE MOMENTS OF INERTIA ARE (IN AMU*BOHR**2)
      2.10182     4.09291     6.19473
 THE ROTATIONAL SYMMETRY NUMBER IS  1.0
 THE ROTATIONAL CONSTANTS ARE (IN GHZ)
    857.87194   440.53911   291.06818
 THE HARMONIC ZERO POINT ENERGY IS (SCALED BY   0.895)
        0.020264 HARTREE/MOLECULE     4447.354927 CM**-1/MOLECULE 
       12.715639 KCAL/MOL               53.202232 KJ/MOL

               Q               LN Q
 ELEC.     1.00000E+00       0.000000
 TRANS.    3.50133E+08      19.673822
 ROT.      1.43568E+03       7.269397
 VIB.      1.70785E+00       0.535233
 TOT.      8.58500E+11      27.478452

              E         H         G         CV        CP        S
           KJ/MOL    KJ/MOL    KJ/MOL   J/MOL-K   J/MOL-K   J/MOL-K
 ELEC.      0.000     0.000     0.000     0.000     0.000     0.000
 TRANS.    24.943    41.572  -327.152    12.472    20.786   184.362
 ROT.      24.943    24.943  -120.881    12.472    12.472    72.912
 VIB.      68.915    68.915    44.302    17.100    17.100    12.306
 TOTAL    118.801   135.430  -403.732    42.044    50.358   269.581
 VIB. THERMAL CORRECTION E(T)-E(0) = H(T)-H(0) = 15712.270 J/MOL

              E         H         G         CV        CP        S
         KCAL/MOL  KCAL/MOL  KCAL/MOL CAL/MOL-K CAL/MOL-K CAL/MOL-K
 ELEC.      0.000     0.000     0.000     0.000     0.000     0.000
 TRANS.     5.962     9.936   -78.191     2.981     4.968    44.064
 ROT.       5.962     5.962   -28.891     2.981     2.981    17.426
 VIB.      16.471    16.471    10.588     4.087     4.087     2.941
 TOTAL     28.394    32.368   -96.494    10.049    12.036    64.431
 VIB. THERMAL CORRECTION E(T)-E(0) = H(T)-H(0) =  3755.323 CAL/MOL

     *******************************************************
     * THIS IS NOT A STATIONARY POINT ON THE MOLECULAR PES *
     *     THE VIBRATIONAL ANALYSIS IS NOT VALID !!!       *
     *******************************************************
 ......END OF NORMAL COORDINATE ANALYSIS......
 STEP CPU TIME =     0.01 TOTAL CPU TIME =       55.9 (    0.9 MIN)
 TOTAL WALL CLOCK TIME=       56.2 SECONDS, CPU UTILIZATION IS  99.56%
              2579261  WORDS OF DYNAMIC MEMORY USED
 EXECUTION OF GAMESS TERMINATED NORMALLY Wed Dec  7 11:51:26 2016
 DDI: 263640 bytes (0.3 MB / 0 MWords) used by master data server.

 ----------------------------------------
 CPU timing information for all processes
 ========================================
 0: 50.620 + 5.312 = 55.932
 ----------------------------------------
 ddikick.x: exited gracefully.
----- accounting info -----
Files used on the master node chim13-cptrx04.chimie.fundp.ac.be were:
-rw-r--r-- 1 pbeaujea pbeaujea    163363 Dec  7 11:51 ./H2O_vib_6.dat
-rw-r--r-- 1 pbeaujea pbeaujea       496 Dec  7 11:50 ./H2O_vib_6.F05
-rw-r--r-- 1 pbeaujea pbeaujea 172455328 Dec  7 11:51 ./H2O_vib_6.F08
-rw-r--r-- 1 pbeaujea pbeaujea   2748480 Dec  7 11:51 ./H2O_vib_6.F10
-rw-r--r-- 1 pbeaujea pbeaujea       496 Dec  7 11:50 ./H2O_vib_6.inp
-rw-r--r-- 1 pbeaujea pbeaujea    263240 Dec  7 11:51 ./H2O_vib_6.log
-rw-r--r-- 1 pbeaujea pbeaujea      5085 Dec  7 11:51 ./H2O_vib_6.rst
Wed Dec  7 11:51:29 CET 2016
0.0u 0.0s 0:59.27 0.1% 0+0k 368+16io 9pf+0w
