 Entering Gaussian System, Link 0=/home/acad/unamur-ucpts/pbeaujea/gaussian/g09/g09
 Initial command:
 /home/acad/unamur-ucpts/pbeaujea/gaussian/g09/l1.exe "/SCRATCH/acad/nlopt/pbeaujea/278679.frontal3/Gau-30262.inp" -scrdir="/SCRATCH/acad/nlopt/pbeaujea/278679.frontal3/"
 Entering Link 1 = /home/acad/unamur-ucpts/pbeaujea/gaussian/g09/l1.exe PID=     30263.
  
 Copyright (c) 1988,1990,1992,1993,1995,1998,2003,2009,2013,
            Gaussian, Inc.  All Rights Reserved.
  
 This is part of the Gaussian(R) 09 program.  It is based on
 the Gaussian(R) 03 system (copyright 2003, Gaussian, Inc.),
 the Gaussian(R) 98 system (copyright 1998, Gaussian, Inc.),
 the Gaussian(R) 94 system (copyright 1995, Gaussian, Inc.),
 the Gaussian 92(TM) system (copyright 1992, Gaussian, Inc.),
 the Gaussian 90(TM) system (copyright 1990, Gaussian, Inc.),
 the Gaussian 88(TM) system (copyright 1988, Gaussian, Inc.),
 the Gaussian 86(TM) system (copyright 1986, Carnegie Mellon
 University), and the Gaussian 82(TM) system (copyright 1983,
 Carnegie Mellon University). Gaussian is a federally registered
 trademark of Gaussian, Inc.
  
 This software contains proprietary and confidential information,
 including trade secrets, belonging to Gaussian, Inc.
  
 This software is provided under written license and may be
 used, copied, transmitted, or stored only in accord with that
 written license.
  
 The following legend is applicable only to US Government
 contracts under FAR:
  
                    RESTRICTED RIGHTS LEGEND
  
 Use, reproduction and disclosure by the US Government is
 subject to restrictions as set forth in subparagraphs (a)
 and (c) of the Commercial Computer Software - Restricted
 Rights clause in FAR 52.227-19.
  
 Gaussian, Inc.
 340 Quinnipiac St., Bldg. 40, Wallingford CT 06492
  
  
 ---------------------------------------------------------------
 Warning -- This program may not be used in any manner that
 competes with the business of Gaussian, Inc. or will provide
 assistance to any competitor of Gaussian, Inc.  The licensee
 of this program is prohibited from giving any competitor of
 Gaussian, Inc. access to this program.  By using this program,
 the user acknowledges that Gaussian, Inc. is engaged in the
 business of creating and licensing software in the field of
 computational chemistry and represents and warrants to the
 licensee that it is not a competitor of Gaussian, Inc. and that
 it will not use this program in any manner prohibited above.
 ---------------------------------------------------------------
  

 Cite this work as:
 Gaussian 09, Revision D.01,
 M. J. Frisch, G. W. Trucks, H. B. Schlegel, G. E. Scuseria, 
 M. A. Robb, J. R. Cheeseman, G. Scalmani, V. Barone, B. Mennucci, 
 G. A. Petersson, H. Nakatsuji, M. Caricato, X. Li, H. P. Hratchian, 
 A. F. Izmaylov, J. Bloino, G. Zheng, J. L. Sonnenberg, M. Hada, 
 M. Ehara, K. Toyota, R. Fukuda, J. Hasegawa, M. Ishida, T. Nakajima, 
 Y. Honda, O. Kitao, H. Nakai, T. Vreven, J. A. Montgomery, Jr., 
 J. E. Peralta, F. Ogliaro, M. Bearpark, J. J. Heyd, E. Brothers, 
 K. N. Kudin, V. N. Staroverov, T. Keith, R. Kobayashi, J. Normand, 
 K. Raghavachari, A. Rendell, J. C. Burant, S. S. Iyengar, J. Tomasi, 
 M. Cossi, N. Rega, J. M. Millam, M. Klene, J. E. Knox, J. B. Cross, 
 V. Bakken, C. Adamo, J. Jaramillo, R. Gomperts, R. E. Stratmann, 
 O. Yazyev, A. J. Austin, R. Cammi, C. Pomelli, J. W. Ochterski, 
 R. L. Martin, K. Morokuma, V. G. Zakrzewski, G. A. Voth, 
 P. Salvador, J. J. Dannenberg, S. Dapprich, A. D. Daniels, 
 O. Farkas, J. B. Foresman, J. V. Ortiz, J. Cioslowski, 
 and D. J. Fox, Gaussian, Inc., Wallingford CT, 2013.
 
 ******************************************
 Gaussian 09:  AM64L-G09RevD.01 24-Apr-2013
                10-Jun-2016 
 ******************************************
 %mem=3GB
 %chk=water_1
 %nprocshared=4
 Will use up to    4 processors via shared memory.
 ----------------------------------------------------------------------
 #P MP2 STO-3G scf=(Conver=10,NoVarAcc,MaxCyc= 600) Nosymm FIELD=READ I
 OP(9/6= 600,9/9=10)
 ----------------------------------------------------------------------
 1/38=1/1;
 2/12=2,15=1,17=6,18=5,40=1/2;
 3/6=3,11=9,14=-6,16=1,25=1,30=1/1,2,3;
 4//1;
 5/5=2,6=10,7=600,38=1/2;
 8/10=1/1;
 9/6=600,9=10,16=-3/6;
 6/7=2,8=2,9=2,10=2/1;
 99/5=1,9=1/99;
 Leave Link    1 at Fri Jun 10 10:01:04 2016, MaxMem=   402653184 cpu:         0.2
 (Enter /home/acad/unamur-ucpts/pbeaujea/gaussian/g09/l101.exe)
 --------
 Test MP2
 --------
 Symbolic Z-matrix:
 Charge =  0 Multiplicity = 1
 O                     0.        0.        0.11591 
 H                     0.        0.76853  -0.46362 
 H                     0.       -0.76853  -0.46362 
 
 NAtoms=      3 NQM=        3 NQMF=       0 NMMI=      0 NMMIF=      0
                NMic=       0 NMicF=      0.
                    Isotopes and Nuclear Properties:
 (Nuclear quadrupole moments (NQMom) in fm**2, nuclear magnetic moments (NMagM)
  in nuclear magnetons)

  Atom         1           2           3
 IAtWgt=          16           1           1
 AtmWgt=  15.9949146   1.0078250   1.0078250
 NucSpn=           0           1           1
 AtZEff=   0.0000000   0.0000000   0.0000000
 NQMom=    0.0000000   0.0000000   0.0000000
 NMagM=    0.0000000   2.7928460   2.7928460
 AtZNuc=   8.0000000   1.0000000   1.0000000
 Leave Link  101 at Fri Jun 10 10:01:04 2016, MaxMem=   402653184 cpu:         0.4
 (Enter /home/acad/unamur-ucpts/pbeaujea/gaussian/g09/l202.exe)
                          Input orientation:                          
 ---------------------------------------------------------------------
 Center     Atomic      Atomic             Coordinates (Angstroms)
 Number     Number       Type             X           Y           Z
 ---------------------------------------------------------------------
      1          8           0        0.000000    0.000000    0.115906
      2          1           0        0.000000    0.768526   -0.463623
      3          1           0        0.000000   -0.768526   -0.463623
 ---------------------------------------------------------------------
                    Distance matrix (angstroms):
                    1          2          3
     1  O    0.000000
     2  H    0.962542   0.000000
     3  H    0.962542   1.537052   0.000000
 Symmetry turned off by external request.
 Stoichiometry    H2O
 Framework group  C2V[C2(O),SGV(H2)]
 Deg. of freedom     2
 Full point group                 C2V     NOp   4
 Rotational constants (GHZ):    840.6148431    424.5069486    282.0652085
 Leave Link  202 at Fri Jun 10 10:01:04 2016, MaxMem=   402653184 cpu:         0.0
 (Enter /home/acad/unamur-ucpts/pbeaujea/gaussian/g09/l301.exe)
 Standard basis: STO-3G (5D, 7F)
 Ernie: Thresh=  0.10000D-02 Tol=  0.10000D-05 Strict=F.
     7 basis functions,    21 primitive gaussians,     7 cartesian basis functions
     5 alpha electrons        5 beta electrons
       nuclear repulsion energy         9.1406126191 Hartrees.
 IExCor=    0 DFT=F Ex=HF Corr=None ExCW=0 ScaHFX=  1.000000
 ScaDFX=  1.000000  1.000000  1.000000  1.000000 ScalE2=  1.000000  1.000000
 IRadAn=      0 IRanWt=     -1 IRanGd=            0 ICorTp=0 IEmpDi=  4
 NAtoms=    3 NActive=    3 NUniq=    3 SFac= 1.00D+00 NAtFMM=   60 NAOKFM=F Big=F
 Integral buffers will be    131072 words long.
 Raffenetti 1 integral format.
 Two-electron integral symmetry is turned off.
 Leave Link  301 at Fri Jun 10 10:01:04 2016, MaxMem=   402653184 cpu:         0.3
 (Enter /home/acad/unamur-ucpts/pbeaujea/gaussian/g09/l302.exe)
 NPDir=0 NMtPBC=     1 NCelOv=     1 NCel=       1 NClECP=     1 NCelD=      1
         NCelK=      1 NCelE2=     1 NClLst=     1 CellRange=     0.0.
 One-electron integrals computed using PRISM.
 NBasis=     7 RedAO= T EigKep=  3.46D-01  NBF=     7
 NBsUse=     7 1.00D-06 EigRej= -1.00D+00 NBFU=     7
 Leave Link  302 at Fri Jun 10 10:01:04 2016, MaxMem=   402653184 cpu:         0.4
 (Enter /home/acad/unamur-ucpts/pbeaujea/gaussian/g09/l303.exe)
 DipDrv:  MaxL=1.
 Leave Link  303 at Fri Jun 10 10:01:04 2016, MaxMem=   402653184 cpu:         0.1
 (Enter /home/acad/unamur-ucpts/pbeaujea/gaussian/g09/l401.exe)
 ExpMin= 1.69D-01 ExpMax= 1.31D+02 ExpMxC= 1.31D+02 IAcc=1 IRadAn=         1 AccDes= 0.00D+00
 Harris functional with IExCor=  205 and IRadAn=       1 diagonalized for initial guess.
 HarFok:  IExCor=  205 AccDes= 0.00D+00 IRadAn=         1 IDoV= 1 UseB2=F ITyADJ=14
 ICtDFT=  3500011 ScaDFX=  1.000000  1.000000  1.000000  1.000000
 FoFCou: FMM=F IPFlag=           0 FMFlag=      100000 FMFlg1=           0
         NFxFlg=           0 DoJE=T BraDBF=F KetDBF=T FulRan=T
         wScrn=  0.000000 ICntrl=     500 IOpCl=  0 I1Cent=   200000004 NGrid=           0
         NMat0=    1 NMatS0=      1 NMatT0=    0 NMatD0=    1 NMtDS0=    0 NMtDT0=    0
 Symmetry not used in FoFCou.
 Harris En= -75.0364555003623    
 JPrj=0 DoOrth=F DoCkMO=F.
 Leave Link  401 at Fri Jun 10 10:01:04 2016, MaxMem=   402653184 cpu:         0.4
 (Enter /home/acad/unamur-ucpts/pbeaujea/gaussian/g09/l502.exe)
 Closed shell SCF:
 Using DIIS extrapolation, IDIIS=  1040.
 Two-electron integral symmetry not used.
 Keep R1 ints in memory in canonical form, NReq=1168695.
 IVT=      366107 IEndB=      366107 NGot=   402653184 MDV=   402286672
 LenX=   402286672 LenY=   402285790
 Requested convergence on RMS density matrix=1.00D-10 within 600 cycles.
 Requested convergence on MAX density matrix=1.00D-08.
 Requested convergence on             energy=1.00D-08.
 No special actions if energy rises.
 FoFCou: FMM=F IPFlag=           0 FMFlag=           0 FMFlg1=           0
         NFxFlg=           0 DoJE=F BraDBF=F KetDBF=F FulRan=T
         wScrn=  0.000000 ICntrl=     600 IOpCl=  0 I1Cent=           0 NGrid=           0
         NMat0=    1 NMatS0=     28 NMatT0=    0 NMatD0=    1 NMtDS0=    0 NMtDT0=    0
 Symmetry not used in FoFCou.

 Cycle   1  Pass 1  IDiag  1:
 E= -74.9099063077934    
 DIIS: error= 7.67D-02 at cycle   1 NSaved=   1.
 NSaved= 1 IEnMin= 1 EnMin= -74.9099063077934     IErMin= 1 ErrMin= 7.67D-02
 ErrMax= 7.67D-02  0.00D+00 EMaxC= 1.00D-01 BMatC= 3.94D-02 BMatP= 3.94D-02
 IDIUse=3 WtCom= 2.33D-01 WtEn= 7.67D-01
 Coeff-Com:  0.100D+01
 Coeff-En:   0.100D+01
 Coeff:      0.100D+01
 Gap=     0.886 Goal=   None    Shift=    0.000
 GapD=    0.886 DampG=2.000 DampE=0.500 DampFc=1.0000 IDamp=-1.
 RMSDP=4.07D-02 MaxDP=1.44D-01              OVMax= 0.00D+00

 Cycle   2  Pass 1  IDiag  1:
 E= -74.9626735928672     Delta-E=       -0.052767285074 Rises=F Damp=F
 DIIS: error= 6.46D-03 at cycle   2 NSaved=   2.
 NSaved= 2 IEnMin= 2 EnMin= -74.9626735928672     IErMin= 2 ErrMin= 6.46D-03
 ErrMax= 6.46D-03  0.00D+00 EMaxC= 1.00D-01 BMatC= 3.76D-04 BMatP= 3.94D-02
 IDIUse=3 WtCom= 9.35D-01 WtEn= 6.46D-02
 Coeff-Com:  0.569D-01 0.943D+00
 Coeff-En:   0.000D+00 0.100D+01
 Coeff:      0.533D-01 0.947D+00
 Gap=     0.987 Goal=   None    Shift=    0.000
 RMSDP=2.85D-03 MaxDP=1.04D-02 DE=-5.28D-02 OVMax= 0.00D+00

 Cycle   3  Pass 1  IDiag  1:
 E= -74.9630549942412     Delta-E=       -0.000381401374 Rises=F Damp=F
 DIIS: error= 1.07D-03 at cycle   3 NSaved=   3.
 NSaved= 3 IEnMin= 3 EnMin= -74.9630549942412     IErMin= 3 ErrMin= 1.07D-03
 ErrMax= 1.07D-03  0.00D+00 EMaxC= 1.00D-01 BMatC= 8.15D-06 BMatP= 3.76D-04
 IDIUse=3 WtCom= 9.89D-01 WtEn= 1.07D-02
 Coeff-Com: -0.109D-01-0.160D+00 0.117D+01
 Coeff-En:   0.000D+00 0.000D+00 0.100D+01
 Coeff:     -0.108D-01-0.158D+00 0.117D+01
 Gap=     0.987 Goal=   None    Shift=    0.000
 RMSDP=8.21D-04 MaxDP=3.53D-03 DE=-3.81D-04 OVMax= 0.00D+00

 Cycle   4  Pass 1  IDiag  1:
 E= -74.9630686647584     Delta-E=       -0.000013670517 Rises=F Damp=F
 DIIS: error= 1.70D-04 at cycle   4 NSaved=   4.
 NSaved= 4 IEnMin= 4 EnMin= -74.9630686647584     IErMin= 4 ErrMin= 1.70D-04
 ErrMax= 1.70D-04  0.00D+00 EMaxC= 1.00D-01 BMatC= 2.22D-07 BMatP= 8.15D-06
 IDIUse=3 WtCom= 9.98D-01 WtEn= 1.70D-03
 Coeff-Com:  0.142D-02 0.111D-01-0.223D+00 0.121D+01
 Coeff-En:   0.000D+00 0.000D+00 0.000D+00 0.100D+01
 Coeff:      0.142D-02 0.111D-01-0.223D+00 0.121D+01
 Gap=     0.987 Goal=   None    Shift=    0.000
 RMSDP=1.80D-04 MaxDP=7.31D-04 DE=-1.37D-05 OVMax= 0.00D+00

 Cycle   5  Pass 1  IDiag  1:
 E= -74.9630691661835     Delta-E=       -0.000000501425 Rises=F Damp=F
 DIIS: error= 2.94D-05 at cycle   5 NSaved=   5.
 NSaved= 5 IEnMin= 5 EnMin= -74.9630691661835     IErMin= 5 ErrMin= 2.94D-05
 ErrMax= 2.94D-05  0.00D+00 EMaxC= 1.00D-01 BMatC= 1.02D-08 BMatP= 2.22D-07
 IDIUse=1 WtCom= 1.00D+00 WtEn= 0.00D+00
 Coeff-Com: -0.686D-03-0.479D-02 0.131D+00-0.827D+00 0.170D+01
 Coeff:     -0.686D-03-0.479D-02 0.131D+00-0.827D+00 0.170D+01
 Gap=     0.987 Goal=   None    Shift=    0.000
 RMSDP=5.22D-05 MaxDP=1.61D-04 DE=-5.01D-07 OVMax= 0.00D+00

 Cycle   6  Pass 1  IDiag  1:
 E= -74.9630691977478     Delta-E=       -0.000000031564 Rises=F Damp=F
 DIIS: error= 2.11D-07 at cycle   6 NSaved=   6.
 NSaved= 6 IEnMin= 6 EnMin= -74.9630691977478     IErMin= 6 ErrMin= 2.11D-07
 ErrMax= 2.11D-07  0.00D+00 EMaxC= 1.00D-01 BMatC= 4.37D-13 BMatP= 1.02D-08
 IDIUse=1 WtCom= 1.00D+00 WtEn= 0.00D+00
 Coeff-Com: -0.324D-07-0.151D-04 0.442D-03-0.314D-02 0.118D-01 0.991D+00
 Coeff:     -0.324D-07-0.151D-04 0.442D-03-0.314D-02 0.118D-01 0.991D+00
 Gap=     0.987 Goal=   None    Shift=    0.000
 RMSDP=2.78D-07 MaxDP=9.90D-07 DE=-3.16D-08 OVMax= 0.00D+00

 Cycle   7  Pass 1  IDiag  1:
 E= -74.9630691977488     Delta-E=       -0.000000000001 Rises=F Damp=F
 DIIS: error= 1.95D-10 at cycle   7 NSaved=   7.
 NSaved= 7 IEnMin= 7 EnMin= -74.9630691977488     IErMin= 7 ErrMin= 1.95D-10
 ErrMax= 1.95D-10  0.00D+00 EMaxC= 1.00D-01 BMatC= 3.19D-19 BMatP= 4.37D-13
 IDIUse=1 WtCom= 1.00D+00 WtEn= 0.00D+00
 Coeff-Com:  0.685D-10 0.962D-08 0.442D-06-0.488D-05 0.167D-04 0.142D-02
 Coeff-Com:  0.999D+00
 Coeff:      0.685D-10 0.962D-08 0.442D-06-0.488D-05 0.167D-04 0.142D-02
 Coeff:      0.999D+00
 Gap=     0.987 Goal=   None    Shift=    0.000
 RMSDP=2.30D-10 MaxDP=7.39D-10 DE=-1.01D-12 OVMax= 0.00D+00

 Cycle   8  Pass 1  IDiag  1:
 E= -74.9630691977488     Delta-E=        0.000000000000 Rises=F Damp=F
 DIIS: error= 2.44D-13 at cycle   8 NSaved=   8.
 NSaved= 8 IEnMin= 8 EnMin= -74.9630691977488     IErMin= 8 ErrMin= 2.44D-13
 ErrMax= 2.44D-13  0.00D+00 EMaxC= 1.00D-01 BMatC= 6.62D-25 BMatP= 3.19D-19
 IDIUse=1 WtCom= 1.00D+00 WtEn= 0.00D+00
 Coeff-Com:  0.000D+00 0.000D+00 0.000D+00 0.000D+00 0.000D+00 0.000D+00
 Coeff-Com:  0.000D+00 0.100D+01
 Coeff:      0.000D+00 0.000D+00 0.000D+00 0.000D+00 0.000D+00 0.000D+00
 Coeff:      0.000D+00 0.100D+01
 Gap=     0.987 Goal=   None    Shift=    0.000
 RMSDP=2.22D-13 MaxDP=7.21D-13 DE=-7.11D-14 OVMax= 0.00D+00

 SCF Done:  E(RHF) =    -74.96306919774884000000 A.U. after    8 cycles
            NFock=  8  Conv=0.22D-12     -V/T= 2.0052
 KE= 7.457654421492D+01 PE=-1.968634167570D+02 EE= 3.818319072521D+01
 Leave Link  502 at Fri Jun 10 10:01:05 2016, MaxMem=   402653184 cpu:         0.4
 (Enter /home/acad/unamur-ucpts/pbeaujea/gaussian/g09/l801.exe)
 ExpMin= 1.69D-01 ExpMax= 1.31D+02 ExpMxC= 1.31D+02 IAcc=3 IRadAn=         5 AccDes= 0.00D+00
 HarFok:  IExCor=  205 AccDes= 0.00D+00 IRadAn=         5 IDoV=-2 UseB2=F ITyADJ=14
 ICtDFT= 12500011 ScaDFX=  1.000000  1.000000  1.000000  1.000000
 Largest valence mixing into a core orbital is  8.63D-05
 Largest core mixing into a valence orbital is  4.61D-05
 Range of M.O.s used for correlation:     2     7
 NBasis=     7 NAE=     5 NBE=     5 NFC=     1 NFV=     0
 NROrb=      6 NOA=     4 NOB=     4 NVA=     2 NVB=     2
 Leave Link  801 at Fri Jun 10 10:01:05 2016, MaxMem=   402653184 cpu:         0.2
 (Enter /home/acad/unamur-ucpts/pbeaujea/gaussian/g09/l906.exe)
 FulOut=F Deriv=F AODrv=F NAtomX=     3
   MMem=      553091  MDisk=           4 MDiskD=           4
  W3Min=          56 MinDsk=       50436 NBas6D=           7
 NBas2D=          34    NTT=          28    LW2=     2000000
    MDV=   402650921 MDiskM=      596206 NBas2p=          34
 Fully in-core method, ICMem=     6002794.
 IMap=   1   2   3   4
 JobTyp=1 Pass  1 fully in-core, NPsUse=  4.
 Compute canonical integrals.
 FoFCou: FMM=F IPFlag=           0 FMFlag=           0 FMFlg1=           0
         NFxFlg=           0 DoJE=F BraDBF=F KetDBF=F FulRan=T
         wScrn=  0.000000 ICntrl=     600 IOpCl=  1 I1Cent=           0 NGrid=           0
         NMat0=    1 NMatS0=     34 NMatT0=    0 NMatD0=    1 NMtDS0=    0 NMtDT0=    0
 Symmetry not used in FoFCou.
 Spin components of T(2) and E(2):
     alpha-alpha T2 =  0.36017341300024634000D-03 E2=-0.10026334064370374000D-02
     alpha-beta  T2 =  0.12551713350364400000D-01 E2=-0.33620902937550885000D-01
     beta-beta   T2 =  0.36017341300024634000D-03 E2=-0.10026334064370374000D-02
 The integrals were generated   1 times.
 ANorm=    0.1006614157D+01
 E2 =     -0.03562616975042496000 EUMP2 =    -74.99869536749927000000
 Leave Link  906 at Fri Jun 10 10:01:05 2016, MaxMem=   402653184 cpu:         0.5
 (Enter /home/acad/unamur-ucpts/pbeaujea/gaussian/g09/l601.exe)
 Copying SCF densities to generalized density rwf, IOpCl= 0 IROHF=0.

 **********************************************************************

            Population analysis using the SCF density.

 **********************************************************************

 Alpha  occ. eigenvalues --  -20.24031  -1.26393  -0.61740  -0.44885  -0.38976
 Alpha virt. eigenvalues --    0.59765   0.74032
          Condensed to atoms (all electrons):
               1          2          3
     1  O    7.836182   0.263781   0.263781
     2  H    0.263781   0.600577  -0.046230
     3  H    0.263781  -0.046230   0.600577
 Mulliken charges:
               1
     1  O   -0.363744
     2  H    0.181872
     3  H    0.181872
 Sum of Mulliken charges =   0.00000
 Mulliken charges with hydrogens summed into heavy atoms:
               1
     1  O    0.000000
 Electronic spatial extent (au):  <R**2>=             17.8998
 Charge=              0.0000 electrons
 Dipole moment (field-independent basis, Debye):
    X=              0.0000    Y=              0.0000    Z=             -1.7095  Tot=              1.7095
 Quadrupole moment (field-independent basis, Debye-Ang):
   XX=             -6.0978   YY=             -4.3091   ZZ=             -5.4141
   XY=              0.0000   XZ=              0.0000   YZ=              0.0000
 Traceless Quadrupole moment (field-independent basis, Debye-Ang):
   XX=             -0.8241   YY=              0.9646   ZZ=             -0.1404
   XY=              0.0000   XZ=              0.0000   YZ=              0.0000
 Octapole moment (field-independent basis, Debye-Ang**2):
  XXX=              0.0000  YYY=              0.0000  ZZZ=             -0.1867  XYY=              0.0000
  XXY=              0.0000  XXZ=             -0.0015  XZZ=              0.0000  YZZ=              0.0000
  YYZ=             -0.5654  XYZ=              0.0000
 Hexadecapole moment (field-independent basis, Debye-Ang**3):
 XXXX=             -3.2350 YYYY=             -6.5605 ZZZZ=             -4.8498 XXXY=              0.0000
 XXXZ=              0.0000 YYYX=              0.0000 YYYZ=              0.0000 ZZZX=              0.0000
 ZZZY=              0.0000 XXYY=             -1.7954 XXZZ=             -1.3809 YYZZ=             -1.6973
 XXYZ=              0.0000 YYXZ=              0.0000 ZZXY=              0.0000
 N-N= 9.140612619102D+00 E-N=-1.968634167570D+02  KE= 7.457654421492D+01
 Leave Link  601 at Fri Jun 10 10:01:05 2016, MaxMem=   402653184 cpu:         0.1
 (Enter /home/acad/unamur-ucpts/pbeaujea/gaussian/g09/l9999.exe)

 Test job not archived.
 1\1\GINC-NODE0826\SP\RMP2-FC\STO-3G\H2O1\PBEAUJEA\10-Jun-2016\0\\#P MP
 2 STO-3G scf=(Conver=10,NoVarAcc,MaxCyc= 600) Nosymm FIELD=READ IOP(9/
 6= 600,9/9=10)\\Test MP2\\0,1\O,0,0.,0.,0.11590581\H,0,0.,0.76852611,-
 0.46362323\H,0,0.,-0.76852611,-0.46362323\\Version=AM64L-G09RevD.01\HF
 =-74.9630692\MP2=-74.9986954\RMSD=2.218e-13\PG=C02V [C2(O1),SGV(H2)]\\
 @


 REALITY IS FOR PEOPLE WHO CAN'T FACE SCIENCE FICTION.
 Job cpu time:       0 days  0 hours  0 minutes  3.1 seconds.
 File lengths (MBytes):  RWF=    122 Int=      0 D2E=      0 Chk=      2 Scr=      2
 Normal termination of Gaussian 09 at Fri Jun 10 10:01:05 2016.
