Pyridine-Ru(II)-(NH3)5                                                  
Freq      RB3LYP                                                      Gen                 
Number of atoms                            I               32
Info1-9                                    I   N=           9
          55          51        1002           0           0         100
           6          18        -502
Charge                                     I                2
Multiplicity                               I                1
Number of electrons                        I              106
Number of alpha electrons                  I               53
Number of beta electrons                   I               53
Number of basis functions                  I              161
Number of independent functions            I              161
Number of point charges in /Mol/           I                0
Number of translation vectors              I                0
Atomic numbers                             I   N=          32
          44           7           6           6           6           7
           7           7           1           1           1           1
           1           1           1           1           1           6
           6           1           1           7           1           1
           1           7           1           1           1           1
           1           1
Nuclear charges                            R   N=          32
  1.60000000E+01  7.00000000E+00  6.00000000E+00  6.00000000E+00  6.00000000E+00
  7.00000000E+00  7.00000000E+00  7.00000000E+00  1.00000000E+00  1.00000000E+00
  1.00000000E+00  1.00000000E+00  1.00000000E+00  1.00000000E+00  1.00000000E+00
  1.00000000E+00  1.00000000E+00  6.00000000E+00  6.00000000E+00  1.00000000E+00
  1.00000000E+00  7.00000000E+00  1.00000000E+00  1.00000000E+00  1.00000000E+00
  7.00000000E+00  1.00000000E+00  1.00000000E+00  1.00000000E+00  1.00000000E+00
  1.00000000E+00  1.00000000E+00
Current cartesian coordinates              R   N=          96
  2.96486395E-02  3.66928235E+00  6.24402709E+00  8.55926371E-03 -3.61525407E-01
  6.22878080E+00 -1.34331975E+00 -1.69203173E+00  4.47350568E+00 -1.40457023E+00
 -4.32440518E+00  4.41050713E+00 -3.17923137E-02 -5.69710028E+00  6.20737611E+00
  3.77627089E-02  7.89269777E+00  6.25124014E+00  4.16979659E+00  3.62434059E+00
  6.79885469E+00 -6.61021487E-01  3.63311046E+00  1.03607367E+01 -2.39176996E+00
 -5.96962493E-01  3.09935797E+00 -2.51165900E+00 -5.27548026E+00  2.97444979E+00
 -4.77121614E-02 -7.74456793E+00  6.19939404E+00  4.82639856E+00  1.84034244E+00
  6.44935635E+00  5.08685404E+00  4.82741156E+00  5.59614789E+00  4.69753727E+00
  4.10626412E+00  8.59420659E+00 -1.02541762E+00  1.81738879E+00  1.09148483E+01
  8.43986242E-01  4.27584631E+00  1.13885955E+01 -2.18790549E+00  4.70906103E+00
  1.08545227E+01  1.36226620E+00 -4.35995774E+00  8.01467922E+00  1.34110808E+00
 -1.72651599E+00  7.97254436E+00  2.40747776E+00 -6.59130982E-01  9.35505672E+00
  2.45496578E+00 -5.33930498E+00  9.44273015E+00 -4.11376869E+00  3.66628775E+00
  5.69268590E+00 -4.80013938E+00  1.91694474E+00  6.14466247E+00 -5.00283815E+00
  4.95712575E+00  6.82240701E+00 -4.63914632E+00  4.05108129E+00  3.87351180E+00
  7.29138315E-01  3.65041344E+00  2.12796913E+00  1.19033901E+00  1.85362660E+00
  1.58453206E+00 -8.01545836E-01  4.20628452E+00  1.08765319E+00  2.19633541E+00
  4.80774630E+00  1.63863106E+00 -9.78083483E-01  8.59633874E+00  4.76694196E+00
 -7.37250531E-01  8.60085097E+00  7.87255247E+00  1.82784538E+00  8.60580013E+00
  6.11890366E+00
Force Field                                I                0
Int Atom Types                             I   N=          32
           0           0           0           0           0           0
           0           0           0           0           0           0
           0           0           0           0           0           0
           0           0           0           0           0           0
           0           0           0           0           0           0
           0           0
MM charges                                 R   N=          32
  0.00000000E+00  0.00000000E+00  0.00000000E+00  0.00000000E+00  0.00000000E+00
  0.00000000E+00  0.00000000E+00  0.00000000E+00  0.00000000E+00  0.00000000E+00
  0.00000000E+00  0.00000000E+00  0.00000000E+00  0.00000000E+00  0.00000000E+00
  0.00000000E+00  0.00000000E+00  0.00000000E+00  0.00000000E+00  0.00000000E+00
  0.00000000E+00  0.00000000E+00  0.00000000E+00  0.00000000E+00  0.00000000E+00
  0.00000000E+00  0.00000000E+00  0.00000000E+00  0.00000000E+00  0.00000000E+00
  0.00000000E+00  0.00000000E+00
Integer atomic weights                     I   N=          32
         102          14          12          12          12          14
          14          14           1           1           1           1
           1           1           1           1           1          12
          12           1           1          14           1           1
           1          14           1           1           1           1
           1           1
Real atomic weights                        R   N=          32
  1.01903700E+02  1.40030740E+01  1.20000000E+01  1.20000000E+01  1.20000000E+01
  1.40030740E+01  1.40030740E+01  1.40030740E+01  1.00782504E+00  1.00782504E+00
  1.00782504E+00  1.00782504E+00  1.00782504E+00  1.00782504E+00  1.00782504E+00
  1.00782504E+00  1.00782504E+00  1.20000000E+01  1.20000000E+01  1.00782504E+00
  1.00782504E+00  1.40030740E+01  1.00782504E+00  1.00782504E+00  1.00782504E+00
  1.40030740E+01  1.00782504E+00  1.00782504E+00  1.00782504E+00  1.00782504E+00
  1.00782504E+00  1.00782504E+00
Atom fragment info                         I   N=          32
           0           0           0           0           0           0
           0           0           0           0           0           0
           0           0           0           0           0           0
           0           0           0           0           0           0
           0           0           0           0           0           0
           0           0
Atom residue num                           I   N=          32
           0           0           0           0           0           0
           0           0           0           0           0           0
           0           0           0           0           0           0
           0           0           0           0           0           0
           0           0           0           0           0           0
           0           0
Nuclear spins                              I   N=          32
           0           2           0           0           0           2
           2           2           1           1           1           1
           1           1           1           1           1           0
           0           1           1           2           1           1
           1           2           1           1           1           1
           1           1
Nuclear ZEff                               R   N=          32
 -2.21760000E+02 -4.55000000E+00 -3.60000000E+00 -3.60000000E+00 -3.60000000E+00
 -4.55000000E+00 -4.55000000E+00 -4.55000000E+00 -1.00000000E+00 -1.00000000E+00
 -1.00000000E+00 -1.00000000E+00 -1.00000000E+00 -1.00000000E+00 -1.00000000E+00
 -1.00000000E+00 -1.00000000E+00 -3.60000000E+00 -3.60000000E+00 -1.00000000E+00
 -1.00000000E+00 -4.55000000E+00 -1.00000000E+00 -1.00000000E+00 -1.00000000E+00
 -4.55000000E+00 -1.00000000E+00 -1.00000000E+00 -1.00000000E+00 -1.00000000E+00
 -1.00000000E+00 -1.00000000E+00
Nuclear ZNuc                               R   N=          32
  4.40000000E+01  7.00000000E+00  6.00000000E+00  6.00000000E+00  6.00000000E+00
  7.00000000E+00  7.00000000E+00  7.00000000E+00  1.00000000E+00  1.00000000E+00
  1.00000000E+00  1.00000000E+00  1.00000000E+00  1.00000000E+00  1.00000000E+00
  1.00000000E+00  1.00000000E+00  6.00000000E+00  6.00000000E+00  1.00000000E+00
  1.00000000E+00  7.00000000E+00  1.00000000E+00  1.00000000E+00  1.00000000E+00
  7.00000000E+00  1.00000000E+00  1.00000000E+00  1.00000000E+00  1.00000000E+00
  1.00000000E+00  1.00000000E+00
Nuclear QMom                               R   N=          32
  0.00000000E+00  2.04400000E+00  0.00000000E+00  0.00000000E+00  0.00000000E+00
  2.04400000E+00  2.04400000E+00  2.04400000E+00  0.00000000E+00  0.00000000E+00
  0.00000000E+00  0.00000000E+00  0.00000000E+00  0.00000000E+00  0.00000000E+00
  0.00000000E+00  0.00000000E+00  0.00000000E+00  0.00000000E+00  0.00000000E+00
  0.00000000E+00  2.04400000E+00  0.00000000E+00  0.00000000E+00  0.00000000E+00
  2.04400000E+00  0.00000000E+00  0.00000000E+00  0.00000000E+00  0.00000000E+00
  0.00000000E+00  0.00000000E+00
Nuclear GFac                               R   N=          32
  0.00000000E+00  4.03761000E-01  0.00000000E+00  0.00000000E+00  0.00000000E+00
  4.03761000E-01  4.03761000E-01  4.03761000E-01  2.79284600E+00  2.79284600E+00
  2.79284600E+00  2.79284600E+00  2.79284600E+00  2.79284600E+00  2.79284600E+00
  2.79284600E+00  2.79284600E+00  0.00000000E+00  0.00000000E+00  2.79284600E+00
  2.79284600E+00  4.03761000E-01  2.79284600E+00  2.79284600E+00  2.79284600E+00
  4.03761000E-01  2.79284600E+00  2.79284600E+00  2.79284600E+00  2.79284600E+00
  2.79284600E+00  2.79284600E+00
MicOpt                                     I   N=          32
          -1          -1          -1          -1          -1          -1
          -1          -1          -1          -1          -1          -1
          -1          -1          -1          -1          -1          -1
          -1          -1          -1          -1          -1          -1
          -1          -1          -1          -1          -1          -1
          -1          -1
Number of contracted shells                I               81
Number of primitive shells                 I              207
Pure/Cartesian d shells                    I                0
Pure/Cartesian f shells                    I                0
Highest angular momentum                   I                2
Largest degree of contraction              I                6
Shell types                                I   N=          81
           0           0           0           1           1           1
          -2          -2           0          -1          -1           0
          -1          -1           0          -1          -1           0
          -1          -1           0          -1          -1           0
          -1          -1           0          -1          -1           0
           0           0           0           0           0           0
           0           0           0           0           0           0
           0           0           0           0           0           0
          -1          -1           0          -1          -1           0
           0           0           0           0          -1          -1
           0           0           0           0           0           0
           0          -1          -1           0           0           0
           0           0           0           0           0           0
           0           0           0
Number of primitives per shell             I   N=          81
           3           3           1           3           2           1
           3           1           6           3           1           6
           3           1           6           3           1           6
           3           1           6           3           1           6
           3           1           6           3           1           3
           1           3           1           3           1           3
           1           3           1           3           1           3
           1           3           1           3           1           6
           3           1           6           3           1           3
           1           3           1           6           3           1
           3           1           3           1           3           1
           6           3           1           3           1           3
           1           3           1           3           1           3
           1           3           1
Shell to atom map                          I   N=          81
           1           1           1           1           1           1
           1           1           2           2           2           3
           3           3           4           4           4           5
           5           5           6           6           6           7
           7           7           8           8           8           9
           9          10          10          11          11          12
          12          13          13          14          14          15
          15          16          16          17          17          18
          18          18          19          19          19          20
          20          21          21          22          22          22
          23          23          24          24          25          25
          26          26          26          27          27          28
          28          29          29          30          30          31
          31          32          32
Primitive exponents                        R   N=         207
  1.50800000E+00  5.12900000E-01  1.36200000E-01  2.56500000E+00  1.50800000E+00
  5.12900000E-01  4.17000000E-02  4.85900000E+00  1.21900000E+00  4.41300000E-01
  5.72500000E-01  8.30000000E-02  2.50000000E-02  4.19500000E+00  1.37700000E+00
  4.82800000E-01  1.50100000E-01  4.17351146E+03  6.27457911E+02  1.42902093E+02
  4.02343293E+01  1.28202129E+01  4.39043701E+00  1.16263619E+01  2.71627981E+00
  7.72218397E-01  2.12031498E-01  3.04752488E+03  4.57369518E+02  1.03948685E+02
  2.92101553E+01  9.28666296E+00  3.16392696E+00  7.86827235E+00  1.88128854E+00
  5.44249258E-01  1.68714478E-01  3.04752488E+03  4.57369518E+02  1.03948685E+02
  2.92101553E+01  9.28666296E+00  3.16392696E+00  7.86827235E+00  1.88128854E+00
  5.44249258E-01  1.68714478E-01  3.04752488E+03  4.57369518E+02  1.03948685E+02
  2.92101553E+01  9.28666296E+00  3.16392696E+00  7.86827235E+00  1.88128854E+00
  5.44249258E-01  1.68714478E-01  4.17351146E+03  6.27457911E+02  1.42902093E+02
  4.02343293E+01  1.28202129E+01  4.39043701E+00  1.16263619E+01  2.71627981E+00
  7.72218397E-01  2.12031498E-01  4.17351146E+03  6.27457911E+02  1.42902093E+02
  4.02343293E+01  1.28202129E+01  4.39043701E+00  1.16263619E+01  2.71627981E+00
  7.72218397E-01  2.12031498E-01  4.17351146E+03  6.27457911E+02  1.42902093E+02
  4.02343293E+01  1.28202129E+01  4.39043701E+00  1.16263619E+01  2.71627981E+00
  7.72218397E-01  2.12031498E-01  1.87311370E+01  2.82539436E+00  6.40121692E-01
  1.61277759E-01  1.87311370E+01  2.82539436E+00  6.40121692E-01  1.61277759E-01
  1.87311370E+01  2.82539436E+00  6.40121692E-01  1.61277759E-01  1.87311370E+01
  2.82539436E+00  6.40121692E-01  1.61277759E-01  1.87311370E+01  2.82539436E+00
  6.40121692E-01  1.61277759E-01  1.87311370E+01  2.82539436E+00  6.40121692E-01
  1.61277759E-01  1.87311370E+01  2.82539436E+00  6.40121692E-01  1.61277759E-01
  1.87311370E+01  2.82539436E+00  6.40121692E-01  1.61277759E-01  1.87311370E+01
  2.82539436E+00  6.40121692E-01  1.61277759E-01  3.04752488E+03  4.57369518E+02
  1.03948685E+02  2.92101553E+01  9.28666296E+00  3.16392696E+00  7.86827235E+00
  1.88128854E+00  5.44249258E-01  1.68714478E-01  3.04752488E+03  4.57369518E+02
  1.03948685E+02  2.92101553E+01  9.28666296E+00  3.16392696E+00  7.86827235E+00
  1.88128854E+00  5.44249258E-01  1.68714478E-01  1.87311370E+01  2.82539436E+00
  6.40121692E-01  1.61277759E-01  1.87311370E+01  2.82539436E+00  6.40121692E-01
  1.61277759E-01  4.17351146E+03  6.27457911E+02  1.42902093E+02  4.02343293E+01
  1.28202129E+01  4.39043701E+00  1.16263619E+01  2.71627981E+00  7.72218397E-01
  2.12031498E-01  1.87311370E+01  2.82539436E+00  6.40121692E-01  1.61277759E-01
  1.87311370E+01  2.82539436E+00  6.40121692E-01  1.61277759E-01  1.87311370E+01
  2.82539436E+00  6.40121692E-01  1.61277759E-01  4.17351146E+03  6.27457911E+02
  1.42902093E+02  4.02343293E+01  1.28202129E+01  4.39043701E+00  1.16263619E+01
  2.71627981E+00  7.72218397E-01  2.12031498E-01  1.87311370E+01  2.82539436E+00
  6.40121692E-01  1.61277759E-01  1.87311370E+01  2.82539436E+00  6.40121692E-01
  1.61277759E-01  1.87311370E+01  2.82539436E+00  6.40121692E-01  1.61277759E-01
  1.87311370E+01  2.82539436E+00  6.40121692E-01  1.61277759E-01  1.87311370E+01
  2.82539436E+00  6.40121692E-01  1.61277759E-01  1.87311370E+01  2.82539436E+00
  6.40121692E-01  1.61277759E-01
Contraction coefficients                   R   N=         207
 -1.75411041E-01 -4.46536390E-01  1.29584197E+00 -1.04310592E+00  1.33147890E+00
  5.61306459E-01  1.00000000E+00 -9.45754947E-02  7.43479759E-01  3.66814380E-01
 -8.80864032E-02  1.02839704E+00  1.00000000E+00  4.85729009E-02  5.10522309E-01
  5.73002811E-01  1.00000000E+00  1.83477216E-03  1.39946270E-02  6.85865518E-02
  2.32240873E-01  4.69069948E-01  3.60455199E-01 -1.14961182E-01 -1.69117479E-01
  1.14585195E+00  1.00000000E+00  1.83473713E-03  1.40373228E-02  6.88426223E-02
  2.32184443E-01  4.67941348E-01  3.62311985E-01 -1.19332420E-01 -1.60854152E-01
  1.14345644E+00  1.00000000E+00  1.83473713E-03  1.40373228E-02  6.88426223E-02
  2.32184443E-01  4.67941348E-01  3.62311985E-01 -1.19332420E-01 -1.60854152E-01
  1.14345644E+00  1.00000000E+00  1.83473713E-03  1.40373228E-02  6.88426223E-02
  2.32184443E-01  4.67941348E-01  3.62311985E-01 -1.19332420E-01 -1.60854152E-01
  1.14345644E+00  1.00000000E+00  1.83477216E-03  1.39946270E-02  6.85865518E-02
  2.32240873E-01  4.69069948E-01  3.60455199E-01 -1.14961182E-01 -1.69117479E-01
  1.14585195E+00  1.00000000E+00  1.83477216E-03  1.39946270E-02  6.85865518E-02
  2.32240873E-01  4.69069948E-01  3.60455199E-01 -1.14961182E-01 -1.69117479E-01
  1.14585195E+00  1.00000000E+00  1.83477216E-03  1.39946270E-02  6.85865518E-02
  2.32240873E-01  4.69069948E-01  3.60455199E-01 -1.14961182E-01 -1.69117479E-01
  1.14585195E+00  1.00000000E+00  3.34946043E-02  2.34726953E-01  8.13757326E-01
  1.00000000E+00  3.34946043E-02  2.34726953E-01  8.13757326E-01  1.00000000E+00
  3.34946043E-02  2.34726953E-01  8.13757326E-01  1.00000000E+00  3.34946043E-02
  2.34726953E-01  8.13757326E-01  1.00000000E+00  3.34946043E-02  2.34726953E-01
  8.13757326E-01  1.00000000E+00  3.34946043E-02  2.34726953E-01  8.13757326E-01
  1.00000000E+00  3.34946043E-02  2.34726953E-01  8.13757326E-01  1.00000000E+00
  3.34946043E-02  2.34726953E-01  8.13757326E-01  1.00000000E+00  3.34946043E-02
  2.34726953E-01  8.13757326E-01  1.00000000E+00  1.83473713E-03  1.40373228E-02
  6.88426223E-02  2.32184443E-01  4.67941348E-01  3.62311985E-01 -1.19332420E-01
 -1.60854152E-01  1.14345644E+00  1.00000000E+00  1.83473713E-03  1.40373228E-02
  6.88426223E-02  2.32184443E-01  4.67941348E-01  3.62311985E-01 -1.19332420E-01
 -1.60854152E-01  1.14345644E+00  1.00000000E+00  3.34946043E-02  2.34726953E-01
  8.13757326E-01  1.00000000E+00  3.34946043E-02  2.34726953E-01  8.13757326E-01
  1.00000000E+00  1.83477216E-03  1.39946270E-02  6.85865518E-02  2.32240873E-01
  4.69069948E-01  3.60455199E-01 -1.14961182E-01 -1.69117479E-01  1.14585195E+00
  1.00000000E+00  3.34946043E-02  2.34726953E-01  8.13757326E-01  1.00000000E+00
  3.34946043E-02  2.34726953E-01  8.13757326E-01  1.00000000E+00  3.34946043E-02
  2.34726953E-01  8.13757326E-01  1.00000000E+00  1.83477216E-03  1.39946270E-02
  6.85865518E-02  2.32240873E-01  4.69069948E-01  3.60455199E-01 -1.14961182E-01
 -1.69117479E-01  1.14585195E+00  1.00000000E+00  3.34946043E-02  2.34726953E-01
  8.13757326E-01  1.00000000E+00  3.34946043E-02  2.34726953E-01  8.13757326E-01
  1.00000000E+00  3.34946043E-02  2.34726953E-01  8.13757326E-01  1.00000000E+00
  3.34946043E-02  2.34726953E-01  8.13757326E-01  1.00000000E+00  3.34946043E-02
  2.34726953E-01  8.13757326E-01  1.00000000E+00  3.34946043E-02  2.34726953E-01
  8.13757326E-01  1.00000000E+00
P(S=P) Contraction coefficients            R   N=         207
  0.00000000E+00  0.00000000E+00  0.00000000E+00  0.00000000E+00  0.00000000E+00
  0.00000000E+00  0.00000000E+00  0.00000000E+00  0.00000000E+00  0.00000000E+00
  0.00000000E+00  0.00000000E+00  0.00000000E+00  0.00000000E+00  0.00000000E+00
  0.00000000E+00  0.00000000E+00  0.00000000E+00  0.00000000E+00  0.00000000E+00
  0.00000000E+00  0.00000000E+00  0.00000000E+00  6.75797439E-02  3.23907296E-01
  7.40895140E-01  1.00000000E+00  0.00000000E+00  0.00000000E+00  0.00000000E+00
  0.00000000E+00  0.00000000E+00  0.00000000E+00  6.89990666E-02  3.16423961E-01
  7.44308291E-01  1.00000000E+00  0.00000000E+00  0.00000000E+00  0.00000000E+00
  0.00000000E+00  0.00000000E+00  0.00000000E+00  6.89990666E-02  3.16423961E-01
  7.44308291E-01  1.00000000E+00  0.00000000E+00  0.00000000E+00  0.00000000E+00
  0.00000000E+00  0.00000000E+00  0.00000000E+00  6.89990666E-02  3.16423961E-01
  7.44308291E-01  1.00000000E+00  0.00000000E+00  0.00000000E+00  0.00000000E+00
  0.00000000E+00  0.00000000E+00  0.00000000E+00  6.75797439E-02  3.23907296E-01
  7.40895140E-01  1.00000000E+00  0.00000000E+00  0.00000000E+00  0.00000000E+00
  0.00000000E+00  0.00000000E+00  0.00000000E+00  6.75797439E-02  3.23907296E-01
  7.40895140E-01  1.00000000E+00  0.00000000E+00  0.00000000E+00  0.00000000E+00
  0.00000000E+00  0.00000000E+00  0.00000000E+00  6.75797439E-02  3.23907296E-01
  7.40895140E-01  1.00000000E+00  0.00000000E+00  0.00000000E+00  0.00000000E+00
  0.00000000E+00  0.00000000E+00  0.00000000E+00  0.00000000E+00  0.00000000E+00
  0.00000000E+00  0.00000000E+00  0.00000000E+00  0.00000000E+00  0.00000000E+00
  0.00000000E+00  0.00000000E+00  0.00000000E+00  0.00000000E+00  0.00000000E+00
  0.00000000E+00  0.00000000E+00  0.00000000E+00  0.00000000E+00  0.00000000E+00
  0.00000000E+00  0.00000000E+00  0.00000000E+00  0.00000000E+00  0.00000000E+00
  0.00000000E+00  0.00000000E+00  0.00000000E+00  0.00000000E+00  0.00000000E+00
  0.00000000E+00  0.00000000E+00  0.00000000E+00  0.00000000E+00  0.00000000E+00
  0.00000000E+00  0.00000000E+00  0.00000000E+00  0.00000000E+00  6.89990666E-02
  3.16423961E-01  7.44308291E-01  1.00000000E+00  0.00000000E+00  0.00000000E+00
  0.00000000E+00  0.00000000E+00  0.00000000E+00  0.00000000E+00  6.89990666E-02
  3.16423961E-01  7.44308291E-01  1.00000000E+00  0.00000000E+00  0.00000000E+00
  0.00000000E+00  0.00000000E+00  0.00000000E+00  0.00000000E+00  0.00000000E+00
  0.00000000E+00  0.00000000E+00  0.00000000E+00  0.00000000E+00  0.00000000E+00
  0.00000000E+00  0.00000000E+00  6.75797439E-02  3.23907296E-01  7.40895140E-01
  1.00000000E+00  0.00000000E+00  0.00000000E+00  0.00000000E+00  0.00000000E+00
  0.00000000E+00  0.00000000E+00  0.00000000E+00  0.00000000E+00  0.00000000E+00
  0.00000000E+00  0.00000000E+00  0.00000000E+00  0.00000000E+00  0.00000000E+00
  0.00000000E+00  0.00000000E+00  0.00000000E+00  0.00000000E+00  6.75797439E-02
  3.23907296E-01  7.40895140E-01  1.00000000E+00  0.00000000E+00  0.00000000E+00
  0.00000000E+00  0.00000000E+00  0.00000000E+00  0.00000000E+00  0.00000000E+00
  0.00000000E+00  0.00000000E+00  0.00000000E+00  0.00000000E+00  0.00000000E+00
  0.00000000E+00  0.00000000E+00  0.00000000E+00  0.00000000E+00  0.00000000E+00
  0.00000000E+00  0.00000000E+00  0.00000000E+00  0.00000000E+00  0.00000000E+00
  0.00000000E+00  0.00000000E+00
Coordinates of each shell                  R   N=         243
  2.96486395E-02  3.66928235E+00  6.24402709E+00  2.96486395E-02  3.66928235E+00
  6.24402709E+00  2.96486395E-02  3.66928235E+00  6.24402709E+00  2.96486395E-02
  3.66928235E+00  6.24402709E+00  2.96486395E-02  3.66928235E+00  6.24402709E+00
  2.96486395E-02  3.66928235E+00  6.24402709E+00  2.96486395E-02  3.66928235E+00
  6.24402709E+00  2.96486395E-02  3.66928235E+00  6.24402709E+00  8.55926371E-03
 -3.61525407E-01  6.22878080E+00  8.55926371E-03 -3.61525407E-01  6.22878080E+00
  8.55926371E-03 -3.61525407E-01  6.22878080E+00 -1.34331975E+00 -1.69203173E+00
  4.47350568E+00 -1.34331975E+00 -1.69203173E+00  4.47350568E+00 -1.34331975E+00
 -1.69203173E+00  4.47350568E+00 -1.40457023E+00 -4.32440518E+00  4.41050713E+00
 -1.40457023E+00 -4.32440518E+00  4.41050713E+00 -1.40457023E+00 -4.32440518E+00
  4.41050713E+00 -3.17923137E-02 -5.69710028E+00  6.20737611E+00 -3.17923137E-02
 -5.69710028E+00  6.20737611E+00 -3.17923137E-02 -5.69710028E+00  6.20737611E+00
  3.77627089E-02  7.89269777E+00  6.25124014E+00  3.77627089E-02  7.89269777E+00
  6.25124014E+00  3.77627089E-02  7.89269777E+00  6.25124014E+00  4.16979659E+00
  3.62434059E+00  6.79885469E+00  4.16979659E+00  3.62434059E+00  6.79885469E+00
  4.16979659E+00  3.62434059E+00  6.79885469E+00 -6.61021487E-01  3.63311046E+00
  1.03607367E+01 -6.61021487E-01  3.63311046E+00  1.03607367E+01 -6.61021487E-01
  3.63311046E+00  1.03607367E+01 -2.39176996E+00 -5.96962493E-01  3.09935797E+00
 -2.39176996E+00 -5.96962493E-01  3.09935797E+00 -2.51165900E+00 -5.27548026E+00
  2.97444979E+00 -2.51165900E+00 -5.27548026E+00  2.97444979E+00 -4.77121614E-02
 -7.74456793E+00  6.19939404E+00 -4.77121614E-02 -7.74456793E+00  6.19939404E+00
  4.82639856E+00  1.84034244E+00  6.44935635E+00  4.82639856E+00  1.84034244E+00
  6.44935635E+00  5.08685404E+00  4.82741156E+00  5.59614789E+00  5.08685404E+00
  4.82741156E+00  5.59614789E+00  4.69753727E+00  4.10626412E+00  8.59420659E+00
  4.69753727E+00  4.10626412E+00  8.59420659E+00 -1.02541762E+00  1.81738879E+00
  1.09148483E+01 -1.02541762E+00  1.81738879E+00  1.09148483E+01  8.43986242E-01
  4.27584631E+00  1.13885955E+01  8.43986242E-01  4.27584631E+00  1.13885955E+01
 -2.18790549E+00  4.70906103E+00  1.08545227E+01 -2.18790549E+00  4.70906103E+00
  1.08545227E+01  1.36226620E+00 -4.35995774E+00  8.01467922E+00  1.36226620E+00
 -4.35995774E+00  8.01467922E+00  1.36226620E+00 -4.35995774E+00  8.01467922E+00
  1.34110808E+00 -1.72651599E+00  7.97254436E+00  1.34110808E+00 -1.72651599E+00
  7.97254436E+00  1.34110808E+00 -1.72651599E+00  7.97254436E+00  2.40747776E+00
 -6.59130982E-01  9.35505672E+00  2.40747776E+00 -6.59130982E-01  9.35505672E+00
  2.45496578E+00 -5.33930498E+00  9.44273015E+00  2.45496578E+00 -5.33930498E+00
  9.44273015E+00 -4.11376869E+00  3.66628775E+00  5.69268590E+00 -4.11376869E+00
  3.66628775E+00  5.69268590E+00 -4.11376869E+00  3.66628775E+00  5.69268590E+00
 -4.80013938E+00  1.91694474E+00  6.14466247E+00 -4.80013938E+00  1.91694474E+00
  6.14466247E+00 -5.00283815E+00  4.95712575E+00  6.82240701E+00 -5.00283815E+00
  4.95712575E+00  6.82240701E+00 -4.63914632E+00  4.05108129E+00  3.87351180E+00
 -4.63914632E+00  4.05108129E+00  3.87351180E+00  7.29138315E-01  3.65041344E+00
  2.12796913E+00  7.29138315E-01  3.65041344E+00  2.12796913E+00  7.29138315E-01
  3.65041344E+00  2.12796913E+00  1.19033901E+00  1.85362660E+00  1.58453206E+00
  1.19033901E+00  1.85362660E+00  1.58453206E+00 -8.01545836E-01  4.20628452E+00
  1.08765319E+00 -8.01545836E-01  4.20628452E+00  1.08765319E+00  2.19633541E+00
  4.80774630E+00  1.63863106E+00  2.19633541E+00  4.80774630E+00  1.63863106E+00
 -9.78083483E-01  8.59633874E+00  4.76694196E+00 -9.78083483E-01  8.59633874E+00
  4.76694196E+00 -7.37250531E-01  8.60085097E+00  7.87255247E+00 -7.37250531E-01
  8.60085097E+00  7.87255247E+00  1.82784538E+00  8.60580013E+00  6.11890366E+00
  1.82784538E+00  8.60580013E+00  6.11890366E+00
Constraint Structure                       R   N=          96
  2.96486395E-02  3.66928235E+00  6.24402709E+00  8.55926371E-03 -3.61525407E-01
  6.22878080E+00 -1.34331975E+00 -1.69203173E+00  4.47350568E+00 -1.40457023E+00
 -4.32440518E+00  4.41050713E+00 -3.17923137E-02 -5.69710028E+00  6.20737611E+00
  3.77627089E-02  7.89269777E+00  6.25124014E+00  4.16979659E+00  3.62434059E+00
  6.79885469E+00 -6.61021487E-01  3.63311046E+00  1.03607367E+01 -2.39176996E+00
 -5.96962493E-01  3.09935797E+00 -2.51165900E+00 -5.27548026E+00  2.97444979E+00
 -4.77121614E-02 -7.74456793E+00  6.19939404E+00  4.82639856E+00  1.84034244E+00
  6.44935635E+00  5.08685404E+00  4.82741156E+00  5.59614789E+00  4.69753727E+00
  4.10626412E+00  8.59420659E+00 -1.02541762E+00  1.81738879E+00  1.09148483E+01
  8.43986242E-01  4.27584631E+00  1.13885955E+01 -2.18790549E+00  4.70906103E+00
  1.08545227E+01  1.36226620E+00 -4.35995774E+00  8.01467922E+00  1.34110808E+00
 -1.72651599E+00  7.97254436E+00  2.40747776E+00 -6.59130982E-01  9.35505672E+00
  2.45496578E+00 -5.33930498E+00  9.44273015E+00 -4.11376869E+00  3.66628775E+00
  5.69268590E+00 -4.80013938E+00  1.91694474E+00  6.14466247E+00 -5.00283815E+00
  4.95712575E+00  6.82240701E+00 -4.63914632E+00  4.05108129E+00  3.87351180E+00
  7.29138315E-01  3.65041344E+00  2.12796913E+00  1.19033901E+00  1.85362660E+00
  1.58453206E+00 -8.01545836E-01  4.20628452E+00  1.08765319E+00  2.19633541E+00
  4.80774630E+00  1.63863106E+00 -9.78083483E-01  8.59633874E+00  4.76694196E+00
 -7.37250531E-01  8.60085097E+00  7.87255247E+00  1.82784538E+00  8.60580013E+00
  6.11890366E+00
Num ILSW                                   I              100
ILSW                                       I   N=         100
           0           0           0           0           2           0
           0           0           0           0         402          -1
           0           0           0           0           2           0
           0           0           0           0           1           0
           1           1           0           0           0           0
           0           0      100000           0          -1           0
           0           0           0           0           0           0
           0           0           0           1           0           0