Water gamma (cc-pVTZ)                                                   
SP        RHF                                                         CC-pVDZ             
Number of atoms                            I                3
Info1-9                                    I   N=           9
          20          18           0           0           0         110
           1           1           2
Full Title                                 C   N=           2
Water gamma (cc-pVDZ)   
Route                                      C   N=           5
#p hf/cc-pVDZ polar=(DCSHG,cubic) cphf=rdfreq nosym         
Charge                                     I                0
Multiplicity                               I                1
Number of electrons                        I               10
Number of alpha electrons                  I                5
Number of beta electrons                   I                5
Number of basis functions                  I               24
Number of independent functions            I               24
Number of point charges in /Mol/           I                0
Number of translation vectors              I                0
Atomic numbers                             I   N=           3
           8           1           1
Nuclear charges                            R   N=           3
  8.00000000E+00  1.00000000E+00  1.00000000E+00
Current cartesian coordinates              R   N=           9
  0.00000000E+00  0.00000000E+00 -2.17498029E-01  0.00000000E+00  1.45029489E+00
  8.69994007E-01  0.00000000E+00 -1.45029489E+00  8.69994007E-01
Number of symbols in /Mol/                 I                0
Force Field                                I                0
Atom Types                                 C   N=           3
                                    
Int Atom Types                             I   N=           3
           0           0           0
MM charges                                 R   N=           3
  0.00000000E+00  0.00000000E+00  0.00000000E+00
Integer atomic weights                     I   N=           3
          16           1           1
Real atomic weights                        R   N=           3
  1.59949146E+01  1.00782504E+00  1.00782504E+00
Atom fragment info                         I   N=           3
           0           0           0
Atom residue num                           I   N=           3
           0           0           0
Nuclear spins                              I   N=           3
           0           1           1
Nuclear ZEff                               R   N=           3
 -5.60000000E+00 -1.00000000E+00 -1.00000000E+00
Nuclear ZNuc                               R   N=           3
  8.00000000E+00  1.00000000E+00  1.00000000E+00
Nuclear QMom                               R   N=           3
  0.00000000E+00  0.00000000E+00  0.00000000E+00
Nuclear GFac                               R   N=           3
  0.00000000E+00  2.79284600E+00  2.79284600E+00
MicOpt                                     I   N=           3
          -1          -1          -1
Number of residues                         I                0
Number of secondary structures             I                0
Number of contracted shells                I               12
Number of primitive shells                 I               30
Pure/Cartesian d shells                    I                0
Pure/Cartesian f shells                    I                0
Highest angular momentum                   I                2
Largest degree of contraction              I                7
Shell types                                I   N=          12
           0           0           0           1           1          -2
           0           0           1           0           0           1
Number of primitives per shell             I   N=          12
           7           7           1           3           1           1
           3           1           1           3           1           1
Shell to atom map                          I   N=          12
           1           1           1           1           1           1
           2           2           2           3           3           3
Primitive exponents                        R   N=          30
  1.17200000E+04  1.75900000E+03  4.00800000E+02  1.13700000E+02  3.70300000E+01
  1.32700000E+01  5.02500000E+00  1.17200000E+04  4.00800000E+02  1.13700000E+02
  3.70300000E+01  1.32700000E+01  5.02500000E+00  1.01300000E+00  3.02300000E-01
  1.77000000E+01  3.85400000E+00  1.04600000E+00  2.75300000E-01  1.18500000E+00
  1.30100000E+01  1.96200000E+00  4.44600000E-01  1.22000000E-01  7.27000000E-01
  1.30100000E+01  1.96200000E+00  4.44600000E-01  1.22000000E-01  7.27000000E-01
Contraction coefficients                   R   N=          30
  7.11864434E-04  5.48520199E-03  2.79099296E-02  1.05133208E-01  2.84002490E-01
  4.51673946E-01  2.73208126E-01  7.69030046E-06  3.13484579E-04 -2.96614853E-03
 -1.08753543E-02 -1.20753817E-01 -1.06275264E-01  1.09597548E+00  1.00000000E+00
  6.26791663E-02  3.33536566E-01  7.41239642E-01  1.00000000E+00  1.00000000E+00
  3.34987264E-02  2.34800801E-01  8.13682958E-01  1.00000000E+00  1.00000000E+00
  3.34987264E-02  2.34800801E-01  8.13682958E-01  1.00000000E+00  1.00000000E+00
Coordinates of each shell                  R   N=          36
  0.00000000E+00  0.00000000E+00 -2.17498029E-01  0.00000000E+00  0.00000000E+00
 -2.17498029E-01  0.00000000E+00  0.00000000E+00 -2.17498029E-01  0.00000000E+00
  0.00000000E+00 -2.17498029E-01  0.00000000E+00  0.00000000E+00 -2.17498029E-01
  0.00000000E+00  0.00000000E+00 -2.17498029E-01  0.00000000E+00  1.45029489E+00
  8.69994007E-01  0.00000000E+00  1.45029489E+00  8.69994007E-01  0.00000000E+00
  1.45029489E+00  8.69994007E-01  0.00000000E+00 -1.45029489E+00  8.69994007E-01
  0.00000000E+00 -1.45029489E+00  8.69994007E-01  0.00000000E+00 -1.45029489E+00
  8.69994007E-01
Constraint Structure                       R   N=           9
  0.00000000E+00  0.00000000E+00 -2.17498029E-01  0.00000000E+00  1.45029489E+00
  8.69994007E-01  0.00000000E+00 -1.45029489E+00  8.69994007E-01
Num ILSW                                   I              100
ILSW                                       I   N=         100
           0           0           0           0           2           0
           0           0           0           0           0          -1
           0           0           0           0           0           0
           0           0           0           0           0           0
           1           1           0           0           0           0
           0           0      100000           0          -1           0
           0           0           0           0           0           0
           0           0           0           1           0           0
           0           0           1           0           0           0
           0           0           4          41           0           0
           0           0           0           0           0           0
           0           0           0           3           0           0
           0           0           0           0           0           0
           0           0           0           0           0           0
           0           0           0           0           0           0
           0           0           0           0           0           0
           0           0           0           0
Num RLSW                                   I               41
RLSW                                       R   N=          41
  1.00000000E+00  1.00000000E+00  1.00000000E+00  1.00000000E+00  1.00000000E+00
  0.00000000E+00  0.00000000E+00  1.00000000E+00  0.00000000E+00  0.00000000E+00
  0.00000000E+00  0.00000000E+00  1.00000000E+00  0.00000000E+00  0.00000000E+00
  0.00000000E+00  0.00000000E+00  1.00000000E+00  0.00000000E+00  0.00000000E+00
  0.00000000E+00  0.00000000E+00  1.00000000E+00  0.00000000E+00  0.00000000E+00
  0.00000000E+00  0.00000000E+00  1.00000000E+00  0.00000000E+00  0.00000000E+00
  0.00000000E+00  0.00000000E+00  1.00000000E+00  0.00000000E+00  0.00000000E+00
  0.00000000E+00  0.00000000E+00  0.00000000E+00  1.00000000E+00  1.00000000E+00
  0.00000000E+00
MxBond                                     I                2
NBond                                      I   N=           3
           2           1           1
IBond                                      I   N=           6
           2           3           1           0           1           0
RBond                                      R   N=           6
  1.00000000E+00  1.00000000E+00  1.00000000E+00  0.00000000E+00  1.00000000E+00
  0.00000000E+00
Virial Ratio                               R      2.000634734398738E+00
SCF Energy                                 R     -7.602657642788459E+01
Total Energy                               R     -7.602657642788459E+01
RMS Density                                R      3.502437159053434E-09
External E-field                           R   N=          35
  0.00000000E+00  0.00000000E+00  0.00000000E+00  0.00000000E+00  0.00000000E+00
  0.00000000E+00  0.00000000E+00  0.00000000E+00  0.00000000E+00  0.00000000E+00
  0.00000000E+00  0.00000000E+00  0.00000000E+00  0.00000000E+00  0.00000000E+00
  0.00000000E+00  0.00000000E+00  0.00000000E+00  0.00000000E+00  0.00000000E+00
  0.00000000E+00  0.00000000E+00  0.00000000E+00  0.00000000E+00  0.00000000E+00
  0.00000000E+00  0.00000000E+00  0.00000000E+00  0.00000000E+00  0.00000000E+00
  0.00000000E+00  0.00000000E+00  0.00000000E+00  0.00000000E+00  0.00000000E+00
IOpCl                                      I                0
IROHF                                      I                0
Alpha Orbital Energies                     R   N=          24
 -2.05496908E+01 -1.33417450E+00 -7.01417598E-01 -5.62614021E-01 -4.92295955E-01
  1.85908779E-01  2.56115094E-01  7.94204358E-01  8.44587797E-01  1.16248599E+00
  1.20086560E+00  1.25156936E+00  1.46067662E+00  1.47033126E+00  1.68408936E+00
  1.87182963E+00  1.92268599E+00  2.45361041E+00  2.48243539E+00  3.27457040E+00
  3.34375401E+00  3.49828818E+00  3.87905268E+00  4.13475393E+00
Alpha MO coefficients                      R   N=         576
  9.97095908E-01  1.52802249E-02 -2.68130675E-03 -1.25613604E-17 -1.31498385E-15
  1.73842691E-03  1.51303225E-17 -1.60636708E-15 -4.87367656E-04  2.43923253E-07
  5.13508893E-17 -4.02222237E-17 -1.41622208E-04 -2.84375586E-17 -2.34940960E-04
  4.25684548E-04  9.68870204E-18  5.70846274E-04  4.69453787E-04 -2.34940960E-04
  4.25684548E-04 -1.09705860E-16 -5.70846274E-04  4.69453787E-04 -2.08833669E-01
  4.42848222E-01  3.78494393E-01 -3.95324403E-17  2.18050118E-15  7.69881102E-02
 -2.89262251E-16  3.45486351E-15 -1.22133035E-02  1.01738774E-03  7.42920343E-17
  5.02706628E-16 -3.13168046E-03 -3.59283203E-17  1.91879400E-01  1.02718169E-02
  2.65412741E-16 -3.75935927E-02 -1.97184875E-02  1.91879400E-01  1.02718169E-02
  3.11922519E-16  3.75935927E-02 -1.97184875E-02  1.56323965E-15 -2.99612261E-15
 -5.01486743E-15 -4.60814881E-16  4.88732098E-01  5.48242165E-15 -4.17707748E-16
  2.19394154E-01  3.15416813E-15  5.00370148E-16  5.99487342E-17  2.64427573E-02
  4.55633738E-18  1.82258785E-17  3.28650751E-01  8.87779141E-02 -9.43410005E-17
 -2.40759494E-02 -3.22772489E-02 -3.28650751E-01 -8.87779141E-02 -2.55729619E-17
 -2.40759494E-02  3.22772489E-02  6.90305284E-02 -1.47943639E-01 -3.44006450E-01
 -4.07665371E-16 -3.74115456E-15  5.47520424E-01 -2.05473497E-16 -3.80760916E-16
  3.70360166E-01  1.76432108E-02 -4.19035101E-17 -1.46686611E-16 -4.66134444E-03
 -1.14230324E-16  2.03437858E-01  4.07560103E-02  7.86077234E-17 -3.13193075E-02
  8.11670566E-03  2.03437858E-01  4.07560103E-02 -1.80865910E-16  3.13193075E-02
  8.11670566E-03 -1.31933797E-16  3.61858230E-16  1.47115119E-15  6.31001344E-01
  1.66197171E-16  1.08875427E-15  4.96114645E-01  7.61637305E-17  3.33970423E-16
  3.67779564E-17  1.79963425E-02 -8.80344771E-17  3.92332685E-17  4.60677194E-17
  1.16120332E-16 -1.47568823E-15  3.08783303E-02 -1.11013834E-16 -8.39716444E-18
 -6.47730743E-16 -1.22298113E-15  3.08783303E-02  5.04417643E-18  1.92801476E-16
 -8.52899673E-02  7.27575405E-02  1.00479468E+00 -5.93129088E-16  2.20422445E-14
  1.89223334E-01 -1.70619218E-16  4.90825591E-14  3.33657782E-01  6.99548302E-03
  3.88377499E-17  1.90116263E-15 -1.00173774E-02  1.23985465E-16 -6.14235642E-02
 -8.29875388E-01 -1.31132630E-16  1.76469191E-02  1.60982909E-02 -6.14235642E-02
 -8.29875388E-01 -1.09073939E-17 -1.76469191E-02  1.60982909E-02 -6.87533766E-15
  1.75105593E-14  4.88080472E-14  7.41171121E-17 -2.82874933E-01  1.49900270E-14
 -1.84815349E-16 -6.73062865E-01  1.31995689E-14  5.56027285E-16 -2.82125415E-16
 -2.12365685E-02  6.69724520E-16 -4.51467819E-16  2.50383398E-02  1.43221252E+00
  1.43176456E-16 -2.09866211E-02 -1.70245369E-02 -2.50383398E-02 -1.43221252E+00
 -9.33816924E-17 -2.09866211E-02  1.70245369E-02 -1.20027889E-15 -8.54818748E-15
  3.45507398E-14 -1.38548667E-15 -2.74137431E-01  3.00996372E-15  8.21896249E-16
 -4.56121924E-01  2.25075900E-14 -6.50725091E-16  7.19038676E-17  1.11666039E-01
  4.68520611E-16  1.37073099E-15  9.43396181E-01 -6.82123061E-01 -8.78733348E-16
  7.36975913E-02  1.56932765E-01 -9.43396181E-01  6.82123061E-01  8.06038786E-16
  7.36975913E-02 -1.56932765E-01  5.14071034E-02 -2.51134318E-01  2.91996204E-01
  3.00090228E-15 -5.93109948E-15 -3.13728662E-01 -3.61420965E-15 -2.35446372E-15
 -1.27886541E-02 -3.03473506E-03 -3.06609783E-16  4.75424447E-15 -1.07361633E-01
 -1.85614185E-17  8.00894908E-01 -5.46471778E-01  1.38006134E-16  2.90631249E-01
  4.88433485E-02  8.00894908E-01 -5.46471778E-01 -2.31112957E-16 -2.90631249E-01
  4.88433485E-02 -4.69841460E-02  1.00149915E-01  7.54709214E-01 -3.29668363E-14
  1.09452364E-14 -7.65389563E-01  3.29161944E-14 -2.25721888E-14  1.26813738E+00
  1.20816026E-02  4.84914693E-16 -3.46218425E-15  3.15485978E-03 -1.00989892E-15
 -5.23568632E-01 -1.22848508E-01 -6.83882297E-16  9.59950435E-02  2.48194115E-01
 -5.23568632E-01 -1.22848508E-01  4.70247489E-15 -9.59950435E-02  2.48194115E-01
  1.86297389E-15 -5.98161995E-15 -2.27311203E-14 -9.67991338E-01  3.66167787E-15
  2.46003247E-14  1.02393458E+00 -7.41543915E-15 -4.21847662E-14 -7.02948087E-16
 -3.42909712E-03 -7.57188616E-16 -6.12642246E-16  7.22498373E-16  2.06857795E-14
  7.52395187E-15  9.52278492E-03 -3.19026911E-15 -9.46856497E-15  2.02276381E-14
 -3.18290201E-15  9.52278492E-03  3.76510312E-16 -7.91398712E-15 -1.02767268E-15
  6.73551631E-16  1.37507732E-14 -4.25701238E-15 -7.28708901E-01 -9.63627445E-15
  4.96505881E-15  1.76942257E+00  2.83447735E-14 -7.50787233E-17  1.50933915E-16
  4.28025578E-02  1.45449547E-15 -2.22168421E-18 -3.86605598E-01 -8.16452339E-01
  2.08659670E-15  3.12361434E-01  1.74468600E-01  3.86605598E-01  8.16452339E-01
 -2.55645361E-15  3.12361434E-01 -1.74468600E-01 -3.75828758E-02  5.72067415E-01
 -6.00531367E-01  5.68040372E-16  8.50831351E-15 -1.41716773E-01 -5.13520857E-15
 -1.63764943E-14  7.13151301E-01 -1.18062719E-01  1.73737705E-15  1.27256847E-15
 -4.26285907E-03  2.21328382E-15 -3.05354870E-01  2.21910808E-01  2.49038376E-14
  3.07157879E-01 -5.56878628E-01 -3.05354870E-01  2.21910808E-01 -1.44794444E-14
 -3.07157879E-01 -5.56878628E-01  8.43786396E-16 -1.06822360E-14  1.00438290E-14
  7.92825775E-15  2.34290174E-15 -5.85772028E-16 -1.66143775E-14 -8.11647539E-15
 -1.67549940E-14  3.79324578E-15  1.93767681E-15 -2.68029212E-16 -5.36785549E-17
  1.30936862E-01  1.14714405E-14 -2.48367192E-15  6.84076358E-01 -1.10797155E-14
  1.55646294E-14  5.77062127E-15 -8.26040613E-15 -6.84076358E-01  9.29764708E-15
  1.78810863E-14  3.25712459E-16  3.29574315E-15 -1.44672091E-14 -1.69219019E-02
  3.99994617E-16  2.33424754E-15 -6.35852997E-01  1.63088312E-15 -1.56564866E-14
  7.57210639E-16  1.61051450E-01 -7.49508014E-16 -8.37855273E-16 -1.59930584E-15
  9.10867576E-15  4.53586904E-16  7.69161679E-01 -5.98512731E-15  5.34530027E-15
  1.07434086E-14  2.79485388E-16  7.69161679E-01  5.93349480E-15  1.75097706E-15
 -1.14604225E-03 -1.59247151E+00  3.00451849E+00  1.53983495E-15  7.44648614E-15
  1.01442158E-01 -4.94276163E-15 -1.44851723E-13  9.64742910E-01 -1.18152025E-01
 -2.47392211E-16 -6.88146821E-16  1.06595775E-01 -1.59432166E-16 -8.18251770E-01
 -3.85410271E-01  8.24527707E-15  3.83806937E-01 -5.20386340E-02 -8.18251770E-01
 -3.85410271E-01  2.12786947E-15 -3.83806937E-01 -5.20386340E-02  3.94553137E-16
 -2.34777072E-13  4.22716576E-13  2.53555427E-16 -3.77779770E-02  5.95778019E-15
  5.99754989E-16  9.36713219E-01  1.36581935E-13 -1.69597826E-14 -1.49908669E-15
 -2.80078139E-02  1.90765194E-14 -2.65386406E-15 -4.06201679E-01 -9.68368710E-02
  5.76453063E-16 -4.66088468E-01  6.87586479E-01  4.06201679E-01  9.68368710E-02
 -2.76592325E-15 -4.66088468E-01 -6.87586479E-01 -6.53148110E-15  8.79046870E-14
  9.64306373E-14  6.10974612E-16  8.44481009E-01  8.16259824E-14  3.17362204E-16
  1.77301982E-01  2.03136296E-14 -6.21355260E-15  3.80550063E-16 -1.39669126E-01
  2.91415510E-14  2.98475190E-15 -3.01904707E-01 -3.29480446E-01 -2.71685730E-15
  7.16294191E-01  5.62824267E-01  3.01904707E-01  3.29480446E-01 -7.59087590E-16
  7.16294191E-01 -5.62824267E-01 -5.34918105E-02  7.24204244E-01  8.04573020E-01
 -4.63471243E-16 -1.04215796E-13  6.56463958E-01 -8.51031917E-16 -1.59019966E-14
  1.87846257E-01 -5.74256982E-02 -1.24287873E-15  1.61873767E-14  2.15439613E-01
  2.46186199E-15 -4.82532988E-01 -1.60106974E-01  1.83945017E-15  7.59945954E-01
  5.18217022E-01 -4.82532988E-01 -1.60106974E-01  2.09985893E-15 -7.59945954E-01
  5.18217022E-01  1.50737008E-16 -3.51013498E-15  5.38677975E-15 -1.22422265E-02
 -9.49580048E-16  6.42279631E-16  3.07097751E-01 -1.30832553E-15  2.30073808E-15
  7.01874305E-15  1.04011939E+00 -1.45800024E-15  5.34232615E-15  1.20773992E-13
  1.92116476E-15 -4.00302017E-17 -3.92826269E-01  3.61490265E-16 -2.48871348E-15
 -1.18067816E-15 -3.24540890E-15 -3.92826269E-01 -4.80191661E-15 -2.58253743E-15
 -1.51321603E-16 -6.45249622E-15  1.23186685E-14  1.25447112E-15 -3.29429839E-15
 -3.57954593E-15 -3.56372353E-14  4.94212600E-15  1.54881103E-14  2.22394716E-14
 -1.19730735E-13 -4.35767205E-16  2.35546518E-15  1.06724330E+00 -8.37037772E-15
  6.35144818E-16 -3.72297433E-01  2.00839263E-15 -9.76715038E-15 -4.38427927E-15
 -1.51356043E-15  3.72297433E-01 -1.23714672E-14 -9.92439553E-15 -1.64998418E-02
 -1.56796523E-01  6.38677736E-01 -2.98327279E-16  1.02126137E-15  3.59981584E-02
 -2.81531497E-15 -9.90318314E-16  5.65667220E-01  1.08575195E+00 -7.44233895E-15
  2.27076497E-15  1.07967212E-01 -2.30708601E-14 -3.45616428E-01 -4.76341616E-02
  1.19567529E-14  3.75803203E-01 -3.00709455E-01 -3.45616428E-01 -4.76341616E-02
 -4.18348302E-15 -3.75803203E-01 -3.00709455E-01 -6.22388922E-02 -1.68862917E-01
  2.23379362E+00  1.12104679E-16 -1.38192876E-14  3.96725025E-01  7.97751718E-16
 -3.02416803E-14  8.76009101E-01  5.89632487E-02  4.30561564E-15 -4.37872940E-14
 -1.17495755E+00  1.30781530E-15 -1.21599249E+00 -1.90239419E-01 -1.52076686E-15
  6.18368197E-01  4.98661462E-01 -1.21599249E+00 -1.90239419E-01 -1.37711950E-15
 -6.18368197E-01  4.98661462E-01 -1.81797949E-15 -9.89758959E-15  8.21813541E-14
 -1.26462137E-15  4.66070043E-01  1.26359661E-14  3.63050330E-16  1.15483492E+00
  3.22589736E-14 -1.12960506E-16  1.67695354E-15  1.32011272E+00 -3.79901980E-14
  7.58086981E-16 -1.08143730E+00 -2.87286726E-01  2.51198294E-16  6.10077469E-01
  4.75976482E-01  1.08143730E+00  2.87286726E-01  5.67170860E-17  6.10077469E-01
 -4.75976482E-01
Total SCF Density                          R   N=         300
  2.08514414E+00 -1.74878264E-01  4.36353327E-01 -2.10883169E-01  4.36787441E-01
  5.22940329E-01  1.04538056E-16  5.48857878E-16 -3.11690955E-15  7.96230000E-01
 -1.14645043E-15 -1.65329447E-15  5.83714714E-15  4.88830023E-16  4.77813895E-01
  4.68494994E-02 -9.36052109E-02 -3.18177999E-01 -9.11274673E-17  1.38921185E-15
  6.11518386E-01  1.89616354E-16  3.96709464E-16 -2.53943689E-15  6.26151209E-01
  1.20513050E-16  7.25901489E-17  4.92402116E-01  7.84747517E-16 -1.70549171E-15
 -1.56061782E-15  3.59628654E-16  2.14670984E-01  9.28002373E-15  1.64245659E-16
  9.64468210E-02  5.52824376E-02 -1.20422044E-01 -2.64059141E-01 -6.32991446E-16
  3.98626795E-15  4.03914347E-01 -4.00672183E-16  7.45835367E-15  2.74925659E-01
  2.00680148E-03 -4.30750284E-03 -1.13427296E-02  5.10135448E-18 -2.03083486E-16
  1.94490167E-02  8.63945070E-18  1.82908281E-16  1.30309953E-02  6.22759917E-04
  8.96348300E-16  2.63477169E-17 -2.41425111E-17  2.26684105E-02  3.86083299E-17
 -1.84825130E-16  1.78263223E-02  2.13318431E-17 -1.35531539E-16 -5.60171027E-18
  6.45362311E-04 -5.45499045E-17 -2.99594075E-16 -2.77906951E-16  3.39048821E-17
  2.58326489E-02  1.13339327E-15  1.23950504E-17  1.16060253E-02  9.21170193E-16
  2.28312418E-17  2.30018825E-18  1.39662273E-03  3.83472009E-04 -1.40201062E-03
  8.31913394E-04  5.93783875E-17 -5.54573494E-16 -5.58504798E-03  4.54421258E-17
 -3.30182621E-16 -3.37567328E-03 -1.70514023E-04  3.40842741E-18 -3.93862185E-17
  6.30819089E-05  8.69619097E-16  1.69439078E-16  2.64203163E-16  2.23496955E-16
  4.61685298E-17 -3.25353806E-16  1.75756865E-16  2.07424770E-17 -2.31017905E-16
 -1.07304353E-17  6.36288600E-18  2.49606684E-18  2.29170237E-18  7.14692705E-31
 -5.25469143E-02  1.09808070E-01  5.43167163E-03  5.01200277E-16  3.21147535E-01
  2.52277833E-01  2.71183583E-16  1.44284329E-01  1.46017910E-01  7.55572928E-03
 -5.61148320E-17  1.73626000E-02 -3.09727349E-03 -6.71440399E-17  3.72207339E-01
  2.15391042E-03 -2.87671041E-03 -2.00949317E-02  9.01340253E-16  8.66456202E-02
  4.59625122E-02  6.71683008E-16  3.89279188E-02  2.97814603E-02  1.44870095E-03
  1.63999415E-17  4.68443029E-03 -4.42031930E-04 -1.47695918E-17  7.86584454E-02
  1.92077322E-02 -2.88311224E-16  3.23391523E-16  3.16380421E-17  3.89206606E-02
  1.94329699E-17  2.36858335E-16  3.06070089E-02  1.55745684E-17  8.20506293E-17
  6.87388116E-18  1.10805861E-03  1.41609659E-18 -1.07733140E-18  1.09247945E-17
  2.39490831E-16  6.46479215E-17  1.90248775E-03  1.25219111E-02 -2.40276315E-02
 -6.95118703E-03  3.06722636E-16 -2.35253117E-02 -4.00523359E-02  2.45830383E-16
 -1.05693908E-02 -2.22658469E-02 -1.17878972E-03  2.22907605E-17 -1.27187828E-03
  5.26930225E-04  1.21729443E-17 -4.29647777E-02 -7.57308964E-03 -2.47458945E-17
  5.94317866E-03  1.02893467E-02 -1.98442420E-02 -2.04839843E-02  1.52465960E-16
 -3.15760032E-02  5.79283105E-03  1.39385607E-16 -1.41863846E-02  6.45953602E-03
  2.43988058E-04  2.78739247E-18 -1.70713287E-03  4.83769459E-05 -1.04261604E-17
 -2.55150902E-02 -5.47700622E-03 -5.15332435E-18  2.53411046E-03  2.99578594E-03
 -5.25469143E-02  1.09808070E-01  5.43167163E-03  1.37911272E-16 -3.21147535E-01
  2.52277833E-01  3.40239602E-16 -1.44284329E-01  1.46017910E-01  7.55572928E-03
 -9.96487742E-17 -1.73626000E-02 -3.09727349E-03 -1.29205481E-16 -5.94910288E-02
 -3.78137947E-02  2.27730308E-16 -1.13411856E-02  1.69305387E-02  3.72207339E-01
  2.15391042E-03 -2.87671041E-03 -2.00949317E-02  3.26900093E-15 -8.66456202E-02
  4.59625122E-02  2.62930941E-15 -3.89279188E-02  2.97814603E-02  1.44870095E-03
  7.48514817E-17 -4.68443029E-03 -4.42031930E-04 -3.15137717E-17 -3.78137947E-02
 -1.22164837E-02  1.82000083E-16  9.58957021E-04  5.97482644E-03  7.86584454E-02
  1.92077322E-02  3.52585819E-16 -5.91651940E-17 -2.33108832E-16  3.89206606E-02
  4.13935810E-17 -1.32808985E-17  3.06070089E-02  2.54409746E-17 -2.44803679E-17
  2.42140732E-19  1.10805861E-03  2.60338051E-18  3.43690157E-18  1.09247945E-17
 -1.05097119E-19  4.57520403E-17  1.90248775E-03  2.15122183E-17  1.04959407E-17
 -4.13858845E-17  1.55139634E-16  1.90248775E-03 -1.25219111E-02  2.40276315E-02
  6.95118703E-03 -3.91756514E-16 -2.35253117E-02  4.00523359E-02 -2.86714160E-16
 -1.05693908E-02  2.22658469E-02  1.17878972E-03 -2.71430342E-17 -1.27187828E-03
 -5.26930225E-04 -1.67191874E-17  1.13411856E-02 -9.58957021E-04  2.10286766E-17
 -3.62662698E-03  5.75197691E-04  4.29647777E-02  7.57308964E-03 -2.73919109E-17
  5.94317866E-03  1.02893467E-02 -1.98442420E-02 -2.04839843E-02  7.54587358E-18
  3.15760032E-02  5.79283105E-03 -9.45816173E-18  1.41863846E-02  6.45953602E-03
  2.43988058E-04  1.92500579E-18  1.70713287E-03  4.83769459E-05 -4.32412924E-18
  1.69305387E-02  5.97482644E-03 -1.28268748E-17 -5.75197691E-04 -1.17757106E-03
 -2.55150902E-02 -5.47700622E-03  5.72489405E-18 -2.53411046E-03  2.99578594E-03
ONIOM Charges                              I   N=          16
           0           0           0           0           0           0
           0           0           0           0           0           0
           0           0           0           0
ONIOM Multiplicities                       I   N=          16
           1           0           0           0           0           0
           0           0           0           0           0           0
           0           0           0           0
Atom Layers                                I   N=           3
           1           1           1
Atom Modifiers                             I   N=           3
           0           0           0
Force Field                                I                0
Atom Modified Types                        C   N=           3
                                    
Int Atom Modified Types                    I   N=           3
           0           0           0
Link Atoms                                 I   N=           3
           0           0           0
Atom Modified MM Charges                   R   N=           3
  0.00000000E+00  0.00000000E+00  0.00000000E+00
Link Distances                             R   N=          12
  0.00000000E+00  0.00000000E+00  0.00000000E+00  0.00000000E+00  0.00000000E+00
  0.00000000E+00  0.00000000E+00  0.00000000E+00  0.00000000E+00  0.00000000E+00
  0.00000000E+00  0.00000000E+00
Cartesian Gradient                         R   N=           9
  0.00000000E+00  0.00000000E+00  0.00000000E+00  0.00000000E+00  0.00000000E+00
  0.00000000E+00  0.00000000E+00  0.00000000E+00  0.00000000E+00
Dipole Moment                              R   N=           3
  1.79319845E-15 -2.65759637E-15  7.99117375E-01
Polarizability                             R   N=           6
  3.03823868E+00 -3.80593550E-16  6.99274997E+00 -5.88765850E-15  9.12377812E-15
  5.02421853E+00
HyperPolarizability                        R   N=          10
  5.56515150E-15  2.81664095E-14 -7.50095488E-14  4.12337302E-13  2.30420623E+00
 -1.36983114E-15  1.72480431E+01 -3.32623429E-14  2.14137433E-13  1.05018785E+01
DQ Polarizability                          R   N=          18
 -1.43791565E-05  1.76576380E-05 -3.27848548E-06  3.93425628E-12  4.25509940E-01
  2.65152483E-12 -2.13064326E-05  2.59771005E-05 -4.67066918E-06 -1.19594592E-12
  2.65389036E-13  4.30475282E+00 -2.25186545E+00  2.33818922E+00 -8.63237718E-02
  6.51792943E-13 -2.79006654E-12  1.57790447E-11
Quadrupole Moment                          R   N=           6
 -1.01725958E+00  1.21223694E+00 -1.94977359E-01  5.12373745E-16  5.06063297E-16
  7.74554032E-16
NDeriv for static properties               I                3
ND12 for static properties                 I                1
Dipole Moment num derivs                   R   N=           9
 -3.03824749E+00 -5.65172908E-12 -2.16931528E-05 -1.91414906E-13 -6.99273433E+00
 -3.20299057E-05  7.82317974E-12 -2.32730502E-11 -5.02420636E+00
Polarizability num derivs                  R   N=          18
  9.37608944E-05  7.37150345E-12  1.95871996E-04  2.30405177E+00  6.50091959E-11
  1.49568609E-04  1.37327501E-04 -8.07236077E-13  2.88166576E-04  3.08607715E-13
  1.72474775E+01  2.20693807E-04  2.30412336E+00  6.74169045E-12  1.72481716E+01
 -1.84428370E-11  7.10863660E-11  1.05018160E+01
HyperPolarizability num derivs             R   N=          30
  5.10851667E-01 -6.49301418E-11  2.96091664E+01  8.48148578E-10  3.44091651E-04
  1.99705741E-11  1.30671134E-03  1.13278248E+01  4.76109833E-10  1.04786971E-03
 -8.70486231E-12  2.96088140E+01 -1.46187138E-11  2.09623503E+02  5.03848179E-04
  1.66157979E-12  1.92527250E-03 -3.75619095E-12  1.24354975E+02  1.54296004E-03
 -2.81149727E-13  9.49759353E-11 -2.42385198E-10  8.53241089E-10  1.13293459E+01
  2.49113480E-11  1.24357344E+02 -8.62860430E-11  4.18096877E-10  6.76283994E+01
DQ Polarizability num derivs               R   N=          54
  0.00000000E+00  0.00000000E+00  0.00000000E+00  0.00000000E+00  0.00000000E+00
  0.00000000E+00  0.00000000E+00  0.00000000E+00  0.00000000E+00  0.00000000E+00
  0.00000000E+00  0.00000000E+00  0.00000000E+00  0.00000000E+00  0.00000000E+00
  0.00000000E+00  0.00000000E+00  0.00000000E+00  0.00000000E+00  0.00000000E+00
  0.00000000E+00  0.00000000E+00  0.00000000E+00  0.00000000E+00  0.00000000E+00
  0.00000000E+00  0.00000000E+00  0.00000000E+00  0.00000000E+00  0.00000000E+00
  0.00000000E+00  0.00000000E+00  0.00000000E+00  0.00000000E+00  0.00000000E+00
  0.00000000E+00  0.00000000E+00  0.00000000E+00  0.00000000E+00  0.00000000E+00
  0.00000000E+00  0.00000000E+00  0.00000000E+00  0.00000000E+00  0.00000000E+00
  0.00000000E+00  0.00000000E+00  0.00000000E+00  0.00000000E+00  0.00000000E+00
  0.00000000E+00  0.00000000E+00  0.00000000E+00  0.00000000E+00
Quadrupole Moment num derivs               R   N=          18
  1.43791565E-05 -1.76576380E-05  3.27848548E-06 -3.93425628E-12 -4.25509940E-01
 -2.65152483E-12  2.13064326E-05 -2.59771005E-05  4.67066918E-06  1.19594592E-12
 -2.65389036E-13 -4.30475282E+00  2.25186545E+00 -2.33818922E+00  8.63237718E-02
 -6.51792943E-13  2.79006654E-12 -1.57790447E-11
QEq coupling tensors                       R   N=          18
  1.96325126E+00 -1.01982243E-16 -1.78802362E+00 -5.43198085E-16  1.93456362E-14
 -1.75227642E-01  2.82317538E-01 -6.89767380E-18 -2.48050557E-01 -6.27287441E-17