 Entering Gaussian System, Link 0=g09
 Input=B3LYP_PyRu_2_6-31G.com
 Output=B3LYP_PyRu_2_6-31G.log
 Initial command:
 /usr/local/gaussian/G09_D01/g09/l1.exe "/scratch/Gau-30829.inp" -scrdir="/scratch/"
 Entering Link 1 = /usr/local/gaussian/G09_D01/g09/l1.exe PID=     30830.
  
 Copyright (c) 1988,1990,1992,1993,1995,1998,2003,2009,2013,
            Gaussian, Inc.  All Rights Reserved.
  
 This is part of the Gaussian(R) 09 program.  It is based on
 the Gaussian(R) 03 system (copyright 2003, Gaussian, Inc.),
 the Gaussian(R) 98 system (copyright 1998, Gaussian, Inc.),
 the Gaussian(R) 94 system (copyright 1995, Gaussian, Inc.),
 the Gaussian 92(TM) system (copyright 1992, Gaussian, Inc.),
 the Gaussian 90(TM) system (copyright 1990, Gaussian, Inc.),
 the Gaussian 88(TM) system (copyright 1988, Gaussian, Inc.),
 the Gaussian 86(TM) system (copyright 1986, Carnegie Mellon
 University), and the Gaussian 82(TM) system (copyright 1983,
 Carnegie Mellon University). Gaussian is a federally registered
 trademark of Gaussian, Inc.
  
 This software contains proprietary and confidential information,
 including trade secrets, belonging to Gaussian, Inc.
  
 This software is provided under written license and may be
 used, copied, transmitted, or stored only in accord with that
 written license.
  
 The following legend is applicable only to US Government
 contracts under FAR:
  
                    RESTRICTED RIGHTS LEGEND
  
 Use, reproduction and disclosure by the US Government is
 subject to restrictions as set forth in subparagraphs (a)
 and (c) of the Commercial Computer Software - Restricted
 Rights clause in FAR 52.227-19.
  
 Gaussian, Inc.
 340 Quinnipiac St., Bldg. 40, Wallingford CT 06492
  
  
 ---------------------------------------------------------------
 Warning -- This program may not be used in any manner that
 competes with the business of Gaussian, Inc. or will provide
 assistance to any competitor of Gaussian, Inc.  The licensee
 of this program is prohibited from giving any competitor of
 Gaussian, Inc. access to this program.  By using this program,
 the user acknowledges that Gaussian, Inc. is engaged in the
 business of creating and licensing software in the field of
 computational chemistry and represents and warrants to the
 licensee that it is not a competitor of Gaussian, Inc. and that
 it will not use this program in any manner prohibited above.
 ---------------------------------------------------------------
  

 Cite this work as:
 Gaussian 09, Revision D.01,
 M. J. Frisch, G. W. Trucks, H. B. Schlegel, G. E. Scuseria, 
 M. A. Robb, J. R. Cheeseman, G. Scalmani, V. Barone, B. Mennucci, 
 G. A. Petersson, H. Nakatsuji, M. Caricato, X. Li, H. P. Hratchian, 
 A. F. Izmaylov, J. Bloino, G. Zheng, J. L. Sonnenberg, M. Hada, 
 M. Ehara, K. Toyota, R. Fukuda, J. Hasegawa, M. Ishida, T. Nakajima, 
 Y. Honda, O. Kitao, H. Nakai, T. Vreven, J. A. Montgomery, Jr., 
 J. E. Peralta, F. Ogliaro, M. Bearpark, J. J. Heyd, E. Brothers, 
 K. N. Kudin, V. N. Staroverov, T. Keith, R. Kobayashi, J. Normand, 
 K. Raghavachari, A. Rendell, J. C. Burant, S. S. Iyengar, J. Tomasi, 
 M. Cossi, N. Rega, J. M. Millam, M. Klene, J. E. Knox, J. B. Cross, 
 V. Bakken, C. Adamo, J. Jaramillo, R. Gomperts, R. E. Stratmann, 
 O. Yazyev, A. J. Austin, R. Cammi, C. Pomelli, J. W. Ochterski, 
 R. L. Martin, K. Morokuma, V. G. Zakrzewski, G. A. Voth, 
 P. Salvador, J. J. Dannenberg, S. Dapprich, A. D. Daniels, 
 O. Farkas, J. B. Foresman, J. V. Ortiz, J. Cioslowski, 
 and D. J. Fox, Gaussian, Inc., Wallingford CT, 2013.
 
 ******************************************
 Gaussian 09:  ES64L-G09RevD.01 24-Apr-2013
                16-Oct-2017 
 ******************************************
 %nprocshared=4
 Will use up to    4 processors via shared memory.
 %chk=B3LYP_PyRu_2_6-31G
 %mem=3Gb
 ---------------------------------------
 #P b3lyp gen opt freq nosym pseudo=read
 ---------------------------------------
 1/14=-1,18=20,19=15,26=3,38=1/1,3;
 2/9=110,12=2,15=1,17=6,18=5,40=1/2;
 3/5=7,11=2,16=1,17=8,25=1,30=1,71=1,74=-5/1,2,3;
 4//1;
 5/5=2,38=5/2;
 6/7=2,8=2,9=2,10=2,28=1/1;
 7/30=1/1,2,3,16;
 1/14=-1,18=20,19=15,26=3/3(2);
 2/9=110,15=1/2;
 99//99;
 2/9=110,15=1/2;
 3/5=7,6=1,11=2,16=1,17=8,25=1,30=1,71=1,74=-5,82=7/1,2,3;
 4/5=5,16=3,69=1/1;
 5/5=2,38=5/2;
 7/30=1/1,2,3,16;
 1/14=-1,18=20,19=15,26=3/3(-5);
 2/9=110,15=1/2;
 6/7=2,8=2,9=2,10=2,19=2,28=1/1;
 99/9=1/99;
 Leave Link    1 at Mon Oct 16 10:07:11 2017, MaxMem=   402653184 cpu:         0.1
 (Enter /usr/local/gaussian/G09_D01/g09/l101.exe)
 ----------------------
 Pyridine-Ru(II)-(NH3)5
 ----------------------
 Symbolic Z-matrix:
 Charge =  2 Multiplicity = 1
 Ru                    0.        1.85487   3.29475 
 N                     0.       -0.20312   3.29475 
 C                    -0.75564  -0.91174   2.43943 
 C                    -0.76612  -2.28281   2.42625 
 C                     0.       -2.97527   3.29475 
 N                     0.        4.01281   3.29475 
 N                     2.12679   1.88465   3.51748 
 N                    -0.27764   1.84656   5.41525 
 H                    -1.30567  -0.44548   1.82134 
 H                    -1.31222  -2.74445   1.80289 
 H                     0.       -3.92509   3.29475 
 H                     2.51312   1.00638   3.49507 
 H                     2.51705   2.47208   3.17877 
 H                     2.3049    2.15817   4.26604 
 H                    -1.07518   1.53265   5.66302 
 H                     0.33788   1.8154    6.08738 
 H                    -0.70326   2.72945   5.6248 
 C                     0.76612  -2.28281   4.16325 
 C                     0.75564  -0.91174   4.15007 
 H                     1.30567  -0.44548   4.76816 
 H                     1.31222  -2.74445   4.78661 
 N                    -2.12679   1.88465   3.07203 
 H                    -2.51312   1.00638   3.09443 
 H                    -2.51705   2.47208   3.41073 
 H                    -2.3049    2.15817   2.32346 
 N                     0.27764   1.84656   1.17425 
 H                     1.07518   1.53265   0.92648 
 H                    -0.33788   1.8154    0.50212 
 H                     0.70326   2.72945   0.9647 
 H                    -0.18334   4.59216   2.60944 
 H                    -0.41645   4.52292   4.0789 
 H                     0.88136   4.44329   3.36723 
 
 NAtoms=     32 NQM=       32 NQMF=       0 NMMI=      0 NMMIF=      0
                NMic=       0 NMicF=      0.
                    Isotopes and Nuclear Properties:
 (Nuclear quadrupole moments (NQMom) in fm**2, nuclear magnetic moments (NMagM)
  in nuclear magnetons)

  Atom         1           2           3           4           5           6           7           8           9          10
 IAtWgt=         102          14          12          12          12          14          14          14           1           1
 AtmWgt= 101.9037000  14.0030740  12.0000000  12.0000000  12.0000000  14.0030740  14.0030740  14.0030740   1.0078250   1.0078250
 NucSpn=           0           2           0           0           0           2           2           2           1           1
 AtZEff=   0.0000000   0.0000000   0.0000000   0.0000000   0.0000000   0.0000000   0.0000000   0.0000000   0.0000000   0.0000000
 NQMom=    0.0000000   2.0440000   0.0000000   0.0000000   0.0000000   2.0440000   2.0440000   2.0440000   0.0000000   0.0000000
 NMagM=    0.0000000   0.4037610   0.0000000   0.0000000   0.0000000   0.4037610   0.4037610   0.4037610   2.7928460   2.7928460
 AtZNuc=  44.0000000   7.0000000   6.0000000   6.0000000   6.0000000   7.0000000   7.0000000   7.0000000   1.0000000   1.0000000

  Atom        11          12          13          14          15          16          17          18          19          20
 IAtWgt=           1           1           1           1           1           1           1          12          12           1
 AtmWgt=   1.0078250   1.0078250   1.0078250   1.0078250   1.0078250   1.0078250   1.0078250  12.0000000  12.0000000   1.0078250
 NucSpn=           1           1           1           1           1           1           1           0           0           1
 AtZEff=   0.0000000   0.0000000   0.0000000   0.0000000   0.0000000   0.0000000   0.0000000   0.0000000   0.0000000   0.0000000
 NQMom=    0.0000000   0.0000000   0.0000000   0.0000000   0.0000000   0.0000000   0.0000000   0.0000000   0.0000000   0.0000000
 NMagM=    2.7928460   2.7928460   2.7928460   2.7928460   2.7928460   2.7928460   2.7928460   0.0000000   0.0000000   2.7928460
 AtZNuc=   1.0000000   1.0000000   1.0000000   1.0000000   1.0000000   1.0000000   1.0000000   6.0000000   6.0000000   1.0000000

  Atom        21          22          23          24          25          26          27          28          29          30
 IAtWgt=           1          14           1           1           1          14           1           1           1           1
 AtmWgt=   1.0078250  14.0030740   1.0078250   1.0078250   1.0078250  14.0030740   1.0078250   1.0078250   1.0078250   1.0078250
 NucSpn=           1           2           1           1           1           2           1           1           1           1
 AtZEff=   0.0000000   0.0000000   0.0000000   0.0000000   0.0000000   0.0000000   0.0000000   0.0000000   0.0000000   0.0000000
 NQMom=    0.0000000   2.0440000   0.0000000   0.0000000   0.0000000   2.0440000   0.0000000   0.0000000   0.0000000   0.0000000
 NMagM=    2.7928460   0.4037610   2.7928460   2.7928460   2.7928460   0.4037610   2.7928460   2.7928460   2.7928460   2.7928460
 AtZNuc=   1.0000000   7.0000000   1.0000000   1.0000000   1.0000000   7.0000000   1.0000000   1.0000000   1.0000000   1.0000000

  Atom        31          32
 IAtWgt=           1           1
 AtmWgt=   1.0078250   1.0078250
 NucSpn=           1           1
 AtZEff=   0.0000000   0.0000000
 NQMom=    0.0000000   0.0000000
 NMagM=    2.7928460   2.7928460
 AtZNuc=   1.0000000   1.0000000
 Leave Link  101 at Mon Oct 16 10:07:11 2017, MaxMem=   402653184 cpu:         0.5
 (Enter /usr/local/gaussian/G09_D01/g09/l103.exe)

 GradGradGradGradGradGradGradGradGradGradGradGradGradGradGradGradGradGrad
 Berny optimization.
 Initialization pass.
                           ----------------------------
                           !    Initial Parameters    !
                           ! (Angstroms and Degrees)  !
 --------------------------                            --------------------------
 ! Name  Definition              Value          Derivative Info.                !
 --------------------------------------------------------------------------------
 ! R1    R(1,2)                  2.058          estimate D2E/DX2                !
 ! R2    R(1,6)                  2.1579         estimate D2E/DX2                !
 ! R3    R(1,7)                  2.1386         estimate D2E/DX2                !
 ! R4    R(1,8)                  2.1386         estimate D2E/DX2                !
 ! R5    R(1,22)                 2.1386         estimate D2E/DX2                !
 ! R6    R(1,26)                 2.1386         estimate D2E/DX2                !
 ! R7    R(2,3)                  1.3434         estimate D2E/DX2                !
 ! R8    R(2,19)                 1.3434         estimate D2E/DX2                !
 ! R9    R(3,4)                  1.3712         estimate D2E/DX2                !
 ! R10   R(3,9)                  0.9497         estimate D2E/DX2                !
 ! R11   R(4,5)                  1.3493         estimate D2E/DX2                !
 ! R12   R(4,10)                 0.9486         estimate D2E/DX2                !
 ! R13   R(5,11)                 0.9498         estimate D2E/DX2                !
 ! R14   R(5,18)                 1.3493         estimate D2E/DX2                !
 ! R15   R(6,30)                 0.9159         estimate D2E/DX2                !
 ! R16   R(6,31)                 1.024          estimate D2E/DX2                !
 ! R17   R(6,32)                 0.9835         estimate D2E/DX2                !
 ! R18   R(7,12)                 0.9597         estimate D2E/DX2                !
 ! R19   R(7,13)                 0.7824         estimate D2E/DX2                !
 ! R20   R(7,14)                 0.8166         estimate D2E/DX2                !
 ! R21   R(8,15)                 0.8922         estimate D2E/DX2                !
 ! R22   R(8,16)                 0.9119         estimate D2E/DX2                !
 ! R23   R(8,17)                 1.0023         estimate D2E/DX2                !
 ! R24   R(18,19)                1.3712         estimate D2E/DX2                !
 ! R25   R(18,21)                0.9486         estimate D2E/DX2                !
 ! R26   R(19,20)                0.9497         estimate D2E/DX2                !
 ! R27   R(22,23)                0.9597         estimate D2E/DX2                !
 ! R28   R(22,24)                0.7824         estimate D2E/DX2                !
 ! R29   R(22,25)                0.8166         estimate D2E/DX2                !
 ! R30   R(26,27)                0.8922         estimate D2E/DX2                !
 ! R31   R(26,28)                0.9119         estimate D2E/DX2                !
 ! R32   R(26,29)                1.0023         estimate D2E/DX2                !
 ! A1    A(2,1,7)               90.7977         estimate D2E/DX2                !
 ! A2    A(2,1,8)               89.7774         estimate D2E/DX2                !
 ! A3    A(2,1,22)              90.7977         estimate D2E/DX2                !
 ! A4    A(2,1,26)              89.7774         estimate D2E/DX2                !
 ! A5    A(6,1,7)               89.2023         estimate D2E/DX2                !
 ! A6    A(6,1,8)               90.2226         estimate D2E/DX2                !
 ! A7    A(6,1,22)              89.2023         estimate D2E/DX2                !
 ! A8    A(6,1,26)              90.2226         estimate D2E/DX2                !
 ! A9    A(7,1,8)               91.4838         estimate D2E/DX2                !
 ! A10   A(7,1,26)              88.5224         estimate D2E/DX2                !
 ! A11   A(8,1,22)              88.5224         estimate D2E/DX2                !
 ! A12   A(22,1,26)             91.4838         estimate D2E/DX2                !
 ! A13   A(1,2,3)              121.8356         estimate D2E/DX2                !
 ! A14   A(1,2,19)             121.8356         estimate D2E/DX2                !
 ! A15   A(3,2,19)             116.3287         estimate D2E/DX2                !
 ! A16   A(2,3,4)              122.5382         estimate D2E/DX2                !
 ! A17   A(2,3,9)              118.7617         estimate D2E/DX2                !
 ! A18   A(4,3,9)              118.6999         estimate D2E/DX2                !
 ! A19   A(3,4,5)              120.1735         estimate D2E/DX2                !
 ! A20   A(3,4,10)             119.8221         estimate D2E/DX2                !
 ! A21   A(5,4,10)             120.0042         estimate D2E/DX2                !
 ! A22   A(4,5,11)             120.8761         estimate D2E/DX2                !
 ! A23   A(4,5,18)             118.2477         estimate D2E/DX2                !
 ! A24   A(11,5,18)            120.8761         estimate D2E/DX2                !
 ! A25   A(1,6,30)             129.2377         estimate D2E/DX2                !
 ! A26   A(1,6,31)             119.8787         estimate D2E/DX2                !
 ! A27   A(1,6,32)             115.956          estimate D2E/DX2                !
 ! A28   A(30,6,31)            100.1632         estimate D2E/DX2                !
 ! A29   A(30,6,32)             87.5738         estimate D2E/DX2                !
 ! A30   A(31,6,32)             95.162          estimate D2E/DX2                !
 ! A31   A(1,7,12)             112.6522         estimate D2E/DX2                !
 ! A32   A(1,7,13)             117.4791         estimate D2E/DX2                !
 ! A33   A(1,7,14)             108.4827         estimate D2E/DX2                !
 ! A34   A(12,7,13)            118.4377         estimate D2E/DX2                !
 ! A35   A(12,7,14)            103.8931         estimate D2E/DX2                !
 ! A36   A(13,7,14)             92.0949         estimate D2E/DX2                !
 ! A37   A(1,8,15)             113.1267         estimate D2E/DX2                !
 ! A38   A(1,8,16)             130.0398         estimate D2E/DX2                !
 ! A39   A(1,8,17)             105.0111         estimate D2E/DX2                !
 ! A40   A(15,8,16)            112.7468         estimate D2E/DX2                !
 ! A41   A(15,8,17)             82.6616         estimate D2E/DX2                !
 ! A42   A(16,8,17)             99.3597         estimate D2E/DX2                !
 ! A43   A(5,18,19)            120.1735         estimate D2E/DX2                !
 ! A44   A(5,18,21)            120.0042         estimate D2E/DX2                !
 ! A45   A(19,18,21)           119.8221         estimate D2E/DX2                !
 ! A46   A(2,19,18)            122.5382         estimate D2E/DX2                !
 ! A47   A(2,19,20)            118.7617         estimate D2E/DX2                !
 ! A48   A(18,19,20)           118.6999         estimate D2E/DX2                !
 ! A49   A(1,22,23)            112.6522         estimate D2E/DX2                !
 ! A50   A(1,22,24)            117.4791         estimate D2E/DX2                !
 ! A51   A(1,22,25)            108.4827         estimate D2E/DX2                !
 ! A52   A(23,22,24)           118.4377         estimate D2E/DX2                !
 ! A53   A(23,22,25)           103.8931         estimate D2E/DX2                !
 ! A54   A(24,22,25)            92.0949         estimate D2E/DX2                !
 ! A55   A(1,26,27)            113.1267         estimate D2E/DX2                !
 ! A56   A(1,26,28)            130.0398         estimate D2E/DX2                !
 ! A57   A(1,26,29)            105.0111         estimate D2E/DX2                !
 ! A58   A(27,26,28)           112.7468         estimate D2E/DX2                !
 ! A59   A(27,26,29)            82.6616         estimate D2E/DX2                !
 ! A60   A(28,26,29)            99.3597         estimate D2E/DX2                !
 ! A61   L(2,1,6,7,-1)         180.0            estimate D2E/DX2                !
 ! A62   L(7,1,22,2,-1)        181.5955         estimate D2E/DX2                !
 ! A63   L(8,1,26,2,-1)        179.5547         estimate D2E/DX2                !
 ! A64   L(2,1,6,7,-2)         180.0            estimate D2E/DX2                !
 ! A65   L(7,1,22,2,-2)        180.0            estimate D2E/DX2                !
 ! A66   L(8,1,26,2,-2)        180.0            estimate D2E/DX2                !
 ! D1    D(7,1,2,3)           -137.4378         estimate D2E/DX2                !
 ! D2    D(7,1,2,19)            42.5622         estimate D2E/DX2                !
 ! D3    D(8,1,2,3)            131.0814         estimate D2E/DX2                !
 ! D4    D(8,1,2,19)           -48.9186         estimate D2E/DX2                !
 ! D5    D(22,1,2,3)            42.5622         estimate D2E/DX2                !
 ! D6    D(22,1,2,19)         -137.4378         estimate D2E/DX2                !
 ! D7    D(26,1,2,3)           -48.9186         estimate D2E/DX2                !
 ! D8    D(26,1,2,19)          131.0814         estimate D2E/DX2                !
 ! D9    D(3,2,6,30)           -26.4815         estimate D2E/DX2                !
 ! D10   D(3,2,6,31)           110.5684         estimate D2E/DX2                !
 ! D11   D(3,2,6,32)          -136.1609         estimate D2E/DX2                !
 ! D12   D(19,2,6,30)          153.5185         estimate D2E/DX2                !
 ! D13   D(19,2,6,31)          -69.4316         estimate D2E/DX2                !
 ! D14   D(19,2,6,32)           43.8391         estimate D2E/DX2                !
 ! D15   D(7,1,6,30)           110.9563         estimate D2E/DX2                !
 ! D16   D(7,1,6,31)          -111.9938         estimate D2E/DX2                !
 ! D17   D(7,1,6,32)             1.2769         estimate D2E/DX2                !
 ! D18   D(8,1,6,30)          -157.5629         estimate D2E/DX2                !
 ! D19   D(8,1,6,31)           -20.513          estimate D2E/DX2                !
 ! D20   D(8,1,6,32)            92.7577         estimate D2E/DX2                !
 ! D21   D(22,1,6,30)          -69.0437         estimate D2E/DX2                !
 ! D22   D(22,1,6,31)           68.0062         estimate D2E/DX2                !
 ! D23   D(22,1,6,32)         -178.7231         estimate D2E/DX2                !
 ! D24   D(26,1,6,30)           22.4371         estimate D2E/DX2                !
 ! D25   D(26,1,6,31)          159.487          estimate D2E/DX2                !
 ! D26   D(26,1,6,32)          -87.2423         estimate D2E/DX2                !
 ! D27   D(2,1,7,12)             4.0477         estimate D2E/DX2                !
 ! D28   D(2,1,7,13)           147.0522         estimate D2E/DX2                !
 ! D29   D(2,1,7,14)          -110.3977         estimate D2E/DX2                !
 ! D30   D(6,1,7,12)          -175.9523         estimate D2E/DX2                !
 ! D31   D(6,1,7,13)           -32.9478         estimate D2E/DX2                !
 ! D32   D(6,1,7,14)            69.6023         estimate D2E/DX2                !
 ! D33   D(8,1,7,12)            93.8457         estimate D2E/DX2                !
 ! D34   D(8,1,7,13)          -123.1499         estimate D2E/DX2                !
 ! D35   D(8,1,7,14)           -20.5998         estimate D2E/DX2                !
 ! D36   D(26,1,7,12)          -85.709          estimate D2E/DX2                !
 ! D37   D(26,1,7,13)           57.2955         estimate D2E/DX2                !
 ! D38   D(26,1,7,14)          159.8456         estimate D2E/DX2                !
 ! D39   D(12,7,22,23)           8.1435         estimate D2E/DX2                !
 ! D40   D(12,7,22,24)         151.3457         estimate D2E/DX2                !
 ! D41   D(12,7,22,25)        -106.5737         estimate D2E/DX2                !
 ! D42   D(13,7,22,23)         151.3457         estimate D2E/DX2                !
 ! D43   D(13,7,22,24)         -65.4521         estimate D2E/DX2                !
 ! D44   D(13,7,22,25)          36.6285         estimate D2E/DX2                !
 ! D45   D(14,7,22,23)        -106.5737         estimate D2E/DX2                !
 ! D46   D(14,7,22,24)          36.6285         estimate D2E/DX2                !
 ! D47   D(14,7,22,25)         138.7091         estimate D2E/DX2                !
 ! D48   D(2,1,8,15)           -67.6084         estimate D2E/DX2                !
 ! D49   D(2,1,8,16)            87.6291         estimate D2E/DX2                !
 ! D50   D(2,1,8,17)          -155.931          estimate D2E/DX2                !
 ! D51   D(6,1,8,15)           112.3916         estimate D2E/DX2                !
 ! D52   D(6,1,8,16)           -92.3709         estimate D2E/DX2                !
 ! D53   D(6,1,8,17)            24.069          estimate D2E/DX2                !
 ! D54   D(7,1,8,15)          -158.4006         estimate D2E/DX2                !
 ! D55   D(7,1,8,16)            -3.1631         estimate D2E/DX2                !
 ! D56   D(7,1,8,17)           113.2768         estimate D2E/DX2                !
 ! D57   D(22,1,8,15)           23.1953         estimate D2E/DX2                !
 ! D58   D(22,1,8,16)          178.4328         estimate D2E/DX2                !
 ! D59   D(22,1,8,17)          -65.1273         estimate D2E/DX2                !
 ! D60   D(15,8,26,27)        -135.0414         estimate D2E/DX2                !
 ! D61   D(15,8,26,28)          19.9215         estimate D2E/DX2                !
 ! D62   D(15,8,26,29)         136.5728         estimate D2E/DX2                !
 ! D63   D(16,8,26,27)          19.9215         estimate D2E/DX2                !
 ! D64   D(16,8,26,28)         174.8844         estimate D2E/DX2                !
 ! D65   D(16,8,26,29)         -68.4643         estimate D2E/DX2                !
 ! D66   D(17,8,26,27)         136.5728         estimate D2E/DX2                !
 ! D67   D(17,8,26,28)         -68.4643         estimate D2E/DX2                !
 ! D68   D(17,8,26,29)          48.187          estimate D2E/DX2                !
 ! D69   D(2,1,22,23)            4.0477         estimate D2E/DX2                !
 ! D70   D(2,1,22,24)          147.0522         estimate D2E/DX2                !
 ! D71   D(2,1,22,25)         -110.3977         estimate D2E/DX2                !
 ! D72   D(6,1,22,23)         -175.9523         estimate D2E/DX2                !
 ! D73   D(6,1,22,24)          -32.9478         estimate D2E/DX2                !
 ! D74   D(6,1,22,25)           69.6023         estimate D2E/DX2                !
 ! D75   D(8,1,22,23)          -85.709          estimate D2E/DX2                !
 ! D76   D(8,1,22,24)           57.2955         estimate D2E/DX2                !
 ! D77   D(8,1,22,25)          159.8456         estimate D2E/DX2                !
 ! D78   D(26,1,22,23)          93.8457         estimate D2E/DX2                !
 ! D79   D(26,1,22,24)        -123.1499         estimate D2E/DX2                !
 ! D80   D(26,1,22,25)         -20.5998         estimate D2E/DX2                !
 ! D81   D(2,1,26,27)          -67.6084         estimate D2E/DX2                !
 ! D82   D(2,1,26,28)           87.6291         estimate D2E/DX2                !
 ! D83   D(2,1,26,29)         -155.931          estimate D2E/DX2                !
 ! D84   D(6,1,26,27)          112.3916         estimate D2E/DX2                !
 ! D85   D(6,1,26,28)          -92.3709         estimate D2E/DX2                !
 ! D86   D(6,1,26,29)           24.069          estimate D2E/DX2                !
 ! D87   D(7,1,26,27)           23.1953         estimate D2E/DX2                !
 ! D88   D(7,1,26,28)          178.4328         estimate D2E/DX2                !
 ! D89   D(7,1,26,29)          -65.1273         estimate D2E/DX2                !
 ! D90   D(22,1,26,27)        -158.4006         estimate D2E/DX2                !
 ! D91   D(22,1,26,28)          -3.1631         estimate D2E/DX2                !
 ! D92   D(22,1,26,29)         113.2768         estimate D2E/DX2                !
 ! D93   D(1,2,3,4)            179.9567         estimate D2E/DX2                !
 ! D94   D(1,2,3,9)             -0.2047         estimate D2E/DX2                !
 ! D95   D(19,2,3,4)            -0.0433         estimate D2E/DX2                !
 ! D96   D(19,2,3,9)           179.7953         estimate D2E/DX2                !
 ! D97   D(1,2,19,18)          179.9567         estimate D2E/DX2                !
 ! D98   D(1,2,19,20)           -0.2047         estimate D2E/DX2                !
 ! D99   D(3,2,19,18)           -0.0433         estimate D2E/DX2                !
 ! D100  D(3,2,19,20)          179.7953         estimate D2E/DX2                !
 ! D101  D(2,3,4,5)              0.0875         estimate D2E/DX2                !
 ! D102  D(2,3,4,10)          -179.7567         estimate D2E/DX2                !
 ! D103  D(9,3,4,5)           -179.7512         estimate D2E/DX2                !
 ! D104  D(9,3,4,10)             0.4046         estimate D2E/DX2                !
 ! D105  D(3,4,5,11)           179.9584         estimate D2E/DX2                !
 ! D106  D(3,4,5,18)            -0.0416         estimate D2E/DX2                !
 ! D107  D(10,4,5,11)           -0.1977         estimate D2E/DX2                !
 ! D108  D(10,4,5,18)          179.8023         estimate D2E/DX2                !
 ! D109  D(4,5,18,19)           -0.0416         estimate D2E/DX2                !
 ! D110  D(4,5,18,21)          179.8023         estimate D2E/DX2                !
 ! D111  D(11,5,18,19)         179.9584         estimate D2E/DX2                !
 ! D112  D(11,5,18,21)          -0.1977         estimate D2E/DX2                !
 ! D113  D(5,18,19,2)            0.0875         estimate D2E/DX2                !
 ! D114  D(5,18,19,20)        -179.7512         estimate D2E/DX2                !
 ! D115  D(21,18,19,2)        -179.7567         estimate D2E/DX2                !
 ! D116  D(21,18,19,20)          0.4046         estimate D2E/DX2                !
 --------------------------------------------------------------------------------
 Trust Radius=3.00D-01 FncErr=1.00D-07 GrdErr=1.00D-06
 Number of steps in this run=    192 maximum allowed number of steps=    192.
 GradGradGradGradGradGradGradGradGradGradGradGradGradGradGradGradGradGrad

 Leave Link  103 at Mon Oct 16 10:07:11 2017, MaxMem=   402653184 cpu:         0.0
 (Enter /usr/local/gaussian/G09_D01/g09/l202.exe)
                          Input orientation:                          
 ---------------------------------------------------------------------
 Center     Atomic      Atomic             Coordinates (Angstroms)
 Number     Number       Type             X           Y           Z
 ---------------------------------------------------------------------
      1         44           0        0.000000    1.854870    3.294750
      2          7           0        0.000000   -0.203122    3.294750
      3          6           0       -0.755639   -0.911739    2.439433
      4          6           0       -0.766116   -2.282810    2.426254
      5          6           0        0.000000   -2.975270    3.294750
      6          7           0        0.000000    4.012806    3.294750
      7          7           0        2.126790    1.884645    3.517475
      8          7           0       -0.277635    1.846560    5.415251
      9          1           0       -1.305671   -0.445483    1.821338
     10          1           0       -1.312219   -2.744450    1.802887
     11          1           0        0.000000   -3.925094    3.294750
     12          1           0        2.513122    1.006375    3.495071
     13          1           0        2.517051    2.472082    3.178775
     14          1           0        2.304896    2.158167    4.266042
     15          1           0       -1.075182    1.532645    5.663016
     16          1           0        0.337877    1.815399    6.087380
     17          1           0       -0.703255    2.729447    5.624797
     18          6           0        0.766116   -2.282810    4.163246
     19          6           0        0.755639   -0.911739    4.150067
     20          1           0        1.305671   -0.445483    4.768162
     21          1           0        1.312219   -2.744450    4.786613
     22          7           0       -2.126790    1.884645    3.072025
     23          1           0       -2.513122    1.006375    3.094429
     24          1           0       -2.517051    2.472082    3.410725
     25          1           0       -2.304896    2.158167    2.323458
     26          7           0        0.277635    1.846560    1.174249
     27          1           0        1.075182    1.532645    0.926484
     28          1           0       -0.337877    1.815399    0.502120
     29          1           0        0.703255    2.729447    0.964703
     30          1           0       -0.183344    4.592164    2.609442
     31          1           0       -0.416453    4.522918    4.078901
     32          1           0        0.881361    4.443285    3.367235
 ---------------------------------------------------------------------
                    Distance matrix (angstroms):
                    1          2          3          4          5
     1  Ru   0.000000
     2  N    2.057992   0.000000
     3  C    2.992772   1.343390   0.000000
     4  C    4.296698   2.380404   1.371174   0.000000
     5  C    4.830140   2.772148   2.358117   1.349341   0.000000
     6  N    2.157936   4.215928   5.055067   6.401250   6.988076
     7  N    2.138628   2.988580   4.158165   5.189157   5.309578
     8  N    2.138615   2.962229   4.085608   5.120978   5.274813
     9  H    3.027762   1.983547   0.949722   2.008187   3.205549
    10  H    5.010122   3.225821   2.018366   0.948645   2.000213
    11  H    5.779964   3.721972   3.222245   2.009556   0.949824
    12  H    2.660048   2.796211   3.934251   4.765974   4.712686
    13  H    2.594214   3.675012   4.765225   5.827047   6.001886
    14  H    2.519512   3.439715   4.704009   5.704227   5.710353
    15  H    2.620788   3.126913   4.058153   5.012968   5.204421
    16  H    2.813272   3.462278   4.684077   5.605173   5.555489
    17  H    2.586227   3.810990   4.838132   5.946205   6.202216
    18  C    4.296698   2.380404   2.677145   2.316220   1.349341
    19  C    2.992772   1.343390   2.282593   2.677145   2.358117
    20  H    3.027762   1.983547   3.144737   3.626652   3.205549
    21  H    5.010122   3.225821   3.625482   3.178660   2.000213
    22  N    2.138628   2.988580   3.178048   4.431268   5.309578
    23  H    2.660048   2.796211   2.682709   3.783811   4.712686
    24  H    2.594214   3.675012   3.936524   5.161778   6.001886
    25  H    2.519512   3.439715   3.440635   4.701137   5.710353
    26  N    2.138615   2.962229   3.205707   4.439440   5.274813
    27  H    2.620788   3.126913   3.408216   4.494150   5.204421
    28  H    2.813272   3.462278   3.371200   4.547636   5.555489
    29  H    2.586227   3.810990   4.190637   5.423827   6.202216
    30  H    2.827727   4.847477   5.536188   6.902061   7.600613
    31  H    2.811904   4.808719   5.686686   7.012235   7.550573
    32  H    2.735314   4.729815   5.675990   6.988561   7.471078
                    6          7          8          9         10
     6  N    0.000000
     7  N    3.016937   0.000000
     8  N    3.044048   3.063375   0.000000
     9  H    4.873609   4.481982   4.384807   0.000000
    10  H    7.043301   6.016238   5.932698   2.299050   0.000000
    11  H    7.937900   6.190792   6.155128   3.997926   2.311167
    12  H    3.923587   0.959746   3.490176   4.415026   5.618310
    13  H    2.953443   0.782370   3.633645   4.996801   6.615783
    14  H    3.113782   0.816632   2.843808   5.078559   6.571629
    15  H    3.593870   3.870384   0.892195   4.327194   5.766309
    16  H    3.569529   3.131999   0.911912   5.100191   6.470852
    17  H    2.751490   3.628175   1.002273   4.990930   6.703833
    18  C    6.401250   4.431268   4.439440   3.626652   3.178660
    19  C    5.055067   3.178048   3.205707   3.144737   3.625482
    20  H    4.873609   2.769107   2.859903   3.937370   4.575091
    21  H    7.043301   4.868548   4.898999   4.575091   3.973700
    22  N    3.016937   4.276841   2.985219   2.769107   4.868548
    23  H    3.923587   4.741214   3.330094   2.277409   4.144748
    24  H    2.953443   4.682065   3.069916   3.536351   5.590078
    25  H    3.113782   4.597862   3.710265   2.833649   5.029121
    26  N    3.044048   2.985219   4.277198   2.859903   4.898999
    27  H    3.593870   2.818336   4.698690   3.222144   4.976073
    28  H    3.569529   3.895092   4.913599   2.790797   4.840822
    29  H    2.751490   3.042497   4.642091   3.853542   5.893067
    30  H    0.915925   3.673132   3.926805   5.220978   7.466645
    31  H    1.023982   3.707259   2.994661   5.529223   7.667938
    32  H    0.983546   2.849615   3.504372   5.574312   7.676100
                   11         12         13         14         15
    11  H    0.000000
    12  H    5.538528   0.000000
    13  H    6.875526   1.499452   0.000000
    14  H    6.577387   1.401563   1.151391   0.000000
    15  H    6.045793   4.225266   4.467453   3.710491   0.000000
    16  H    6.392668   3.479408   3.693239   2.702578   1.502255
    17  H    7.085662   4.224901   4.052114   3.349858   1.253844
    18  C    2.009556   3.783811   5.161778   4.701137   4.494150
    19  C    3.222245   2.682709   3.936524   3.440635   3.408216
    20  H    3.997926   2.277409   3.536351   2.833649   3.222144
    21  H    2.311167   4.144748   5.590078   5.029121   4.976073
    22  N    6.190792   4.741214   4.682065   4.597862   2.818336
    23  H    5.538528   5.042186   5.240043   5.090442   2.990363
    24  H    6.875526   5.240043   5.039443   4.907268   2.834492
    25  H    6.577387   5.090442   4.907268   5.002381   3.613326
    26  N    6.155128   3.330094   3.069916   3.710265   4.698690
    27  H    6.045793   2.990363   2.834492   3.613326   5.201807
    28  H    6.392668   4.211944   3.968164   4.611816   5.220959
    29  H    7.085662   3.556312   2.873710   3.713550   5.164235
    30  H    8.546751   4.573090   3.480089   3.854867   4.413654
    31  H    8.494541   4.614037   3.690745   3.610098   3.447474
    32  H    8.414976   3.806749   2.568393   2.838322   4.191718
                   16         17         18         19         20
    16  H    0.000000
    17  H    1.460624   0.000000
    18  C    4.547636   5.423827   0.000000
    19  C    3.371200   4.190637   1.371174   0.000000
    20  H    2.790797   3.853542   2.008187   0.949722   0.000000
    21  H    4.840822   5.893067   0.948645   2.018366   2.299050
    22  N    3.895092   3.042497   5.189157   4.158165   4.481982
    23  H    4.211944   3.556312   4.765974   3.934251   4.415026
    24  H    3.968164   2.873710   5.827047   4.765225   4.996801
    25  H    4.611816   3.713550   5.704227   4.704009   5.078559
    26  N    4.913599   4.642091   5.120978   4.085608   4.384807
    27  H    5.220959   5.164235   5.012968   4.058153   4.327194
    28  H    5.625991   5.216398   5.605173   4.684077   5.100191
    29  H    5.216398   4.867725   5.946205   4.838132   4.990930
    30  H    4.480865   3.582232   7.112035   5.792078   5.679360
    31  H    3.454513   2.385076   6.908221   5.560068   5.303376
    32  H    3.821040   3.247281   6.774014   5.413401   5.103204
                   21         22         23         24         25
    21  H    0.000000
    22  N    6.016238   0.000000
    23  H    5.618310   0.959746   0.000000
    24  H    6.615783   0.782370   1.499452   0.000000
    25  H    6.571629   0.816632   1.401563   1.151391   0.000000
    26  N    5.932698   3.063375   3.490176   3.633645   2.843808
    27  H    5.766309   3.870384   4.225266   4.467453   3.710491
    28  H    6.470852   3.131999   3.479408   3.693239   2.702578
    29  H    6.703833   3.628175   4.224901   4.052114   3.349858
    30  H    7.797608   3.364762   4.303599   3.253151   3.241467
    31  H    7.503586   3.301445   4.210853   3.010797   3.498549
    32  H    7.339197   3.960146   4.838315   3.928961   4.057520
                   26         27         28         29         30
    26  N    0.000000
    27  H    0.892195   0.000000
    28  H    0.911912   1.502255   0.000000
    29  H    1.002273   1.253844   1.460624   0.000000
    30  H    3.132191   3.711724   3.489285   2.638359   0.000000
    31  H    4.010194   4.593957   4.486669   3.764109   1.489444
    32  H    3.452051   3.803506   4.074458   2.956539   1.315299
                   31         32
    31  H    0.000000
    32  H    1.482272   0.000000
 Symmetry turned off by external request.
 Stoichiometry    C5H20N6Ru(2+)
 Framework group  C1[X(C5H20N6Ru)]
 Deg. of freedom    90
 Full point group                 C1      NOp   1
 Rotational constants (GHZ):      1.2113368      0.4665937      0.4385596
 Leave Link  202 at Mon Oct 16 10:07:11 2017, MaxMem=   402653184 cpu:         0.0
 (Enter /usr/local/gaussian/G09_D01/g09/l301.exe)
 General basis read from cards:  (5D, 7F)
 Centers:       9     10     11     12     13     14     15     16     17     20
 Centers:      21     23     24     25     27     28     29     30     31     32
 Centers:       3      4      5     18     19      2      6      7      8     22
 Centers:      26
 6-31G
 ****
 Centers:       1
 LANL2DZ
 ****
 ======================================================================================================
                                       Pseudopotential Parameters
 ======================================================================================================
  Center     Atomic      Valence      Angular      Power
  Number     Number     Electrons     Momentum     of R      Exponent        Coefficient   SO-Coeffient
 ======================================================================================================
    1         44           16
                                      F and up 
                                                     0      554.3796303       -0.05152700    0.00000000
                                                     1      155.1066871      -20.18165360    0.00000000
                                                     2       48.4976263     -105.99669150    0.00000000
                                                     2       14.7701594      -42.21667880    0.00000000
                                                     2        5.2077363       -3.76750240    0.00000000
                                      S - F
                                                     0       66.7118060        2.95783440    0.00000000
                                                     1       77.3503632       25.37487070    0.00000000
                                                     2       18.3571445      536.12623720    0.00000000
                                                     2       11.8404727     -651.20572210    0.00000000
                                                     2        8.1179479      381.38169430    0.00000000
                                      P - F
                                                     0       54.9937915        4.96515570    0.00000000
                                                     1       13.9399212       23.88615010    0.00000000
                                                     2       15.2118246      464.46313440    0.00000000
                                                     2       10.5460691     -714.44517880    0.00000000
                                                     2        7.5539486      377.55035940    0.00000000
                                      D - F
                                                     0       60.3444595        3.03529880    0.00000000
                                                     1       45.2100305       23.29017230    0.00000000
                                                     2       19.1190074      146.09266200    0.00000000
                                                     2        4.2712090       28.91297700    0.00000000
    2          7
                                   No pseudopotential on this center.
    3          6
                                   No pseudopotential on this center.
    4          6
                                   No pseudopotential on this center.
    5          6
                                   No pseudopotential on this center.
    6          7
                                   No pseudopotential on this center.
    7          7
                                   No pseudopotential on this center.
    8          7
                                   No pseudopotential on this center.
    9          1
                                   No pseudopotential on this center.
   10          1
                                   No pseudopotential on this center.
   11          1
                                   No pseudopotential on this center.
   12          1
                                   No pseudopotential on this center.
   13          1
                                   No pseudopotential on this center.
   14          1
                                   No pseudopotential on this center.
   15          1
                                   No pseudopotential on this center.
   16          1
                                   No pseudopotential on this center.
   17          1
                                   No pseudopotential on this center.
   18          6
                                   No pseudopotential on this center.
   19          6
                                   No pseudopotential on this center.
   20          1
                                   No pseudopotential on this center.
   21          1
                                   No pseudopotential on this center.
   22          7
                                   No pseudopotential on this center.
   23          1
                                   No pseudopotential on this center.
   24          1
                                   No pseudopotential on this center.
   25          1
                                   No pseudopotential on this center.
   26          7
                                   No pseudopotential on this center.
   27          1
                                   No pseudopotential on this center.
   28          1
                                   No pseudopotential on this center.
   29          1
                                   No pseudopotential on this center.
   30          1
                                   No pseudopotential on this center.
   31          1
                                   No pseudopotential on this center.
   32          1
                                   No pseudopotential on this center.
 ======================================================================================================
 Ernie: Thresh=  0.10000D-02 Tol=  0.10000D-05 Strict=F.
 Ernie:  1 primitive shells out of 208 were deleted.
   161 basis functions,   371 primitive gaussians,   163 cartesian basis functions
    53 alpha electrons       53 beta electrons
       nuclear repulsion energy       984.3656171759 Hartrees.
 IExCor=  402 DFT=T Ex+Corr=B3LYP ExCW=0 ScaHFX=  0.200000
 ScaDFX=  0.800000  0.720000  1.000000  0.810000 ScalE2=  1.000000  1.000000
 IRadAn=      0 IRanWt=     -1 IRanGd=            0 ICorTp=0 IEmpDi=  4
 NAtoms=   32 NActive=   32 NUniq=   32 SFac= 1.00D+00 NAtFMM=   60 NAOKFM=F Big=F
 Integral buffers will be    131072 words long.
 Raffenetti 2 integral format.
 Two-electron integral symmetry is turned off.
 Leave Link  301 at Mon Oct 16 10:07:11 2017, MaxMem=   402653184 cpu:         0.2
 (Enter /usr/local/gaussian/G09_D01/g09/l302.exe)
 NPDir=0 NMtPBC=     1 NCelOv=     1 NCel=       1 NClECP=     1 NCelD=      1
         NCelK=      1 NCelE2=     1 NClLst=     1 CellRange=     0.0.
 One-electron integrals computed using PRISM.
   1 Symmetry operations used in ECPInt.
 ECPInt:  NShTT=    3321 NPrTT=   21799 LenC2=    3205 LenP2D=   13666.
 LDataN:  DoStor=T MaxTD1= 5 Len=  102
 NBasis=   161 RedAO= T EigKep=  8.29D-04  NBF=   161
 NBsUse=   161 1.00D-06 EigRej= -1.00D+00 NBFU=   161
 Precomputing XC quadrature grid using
 IXCGrd= 4 IRadAn=           0 IRanWt=          -1 IRanGd=           0 AccXCQ= 0.00D+00.
 Defaulting to unpruned grid for atomic number  44.
 Generated NRdTot=       0 NPtTot=           0 NUsed=           0 NTot=          32
 NSgBfM=   163   163   163   163   163 MxSgAt=    32 MxSgA2=    32.
 Leave Link  302 at Mon Oct 16 10:07:11 2017, MaxMem=   402653184 cpu:         1.8
 (Enter /usr/local/gaussian/G09_D01/g09/l303.exe)
 DipDrv:  MaxL=1.
 Leave Link  303 at Mon Oct 16 10:07:12 2017, MaxMem=   402653184 cpu:         0.1
 (Enter /usr/local/gaussian/G09_D01/g09/l401.exe)
 ExpMin= 2.50D-02 ExpMax= 4.17D+03 ExpMxC= 6.27D+02 IAcc=3 IRadAn=         5 AccDes= 0.00D+00
 Harris functional with IExCor=  402 and IRadAn=       5 diagonalized for initial guess.
 HarFok:  IExCor=  402 AccDes= 0.00D+00 IRadAn=         5 IDoV= 1 UseB2=F ITyADJ=14
 ICtDFT=  3500011 ScaDFX=  1.000000  1.000000  1.000000  1.000000
 Defaulting to unpruned grid for atomic number  44.
 Defaulting to unpruned grid for atomic number  44.
 Defaulting to unpruned grid for atomic number  44.
 Defaulting to unpruned grid for atomic number  44.
 FoFCou: FMM=F IPFlag=           0 FMFlag=      100000 FMFlg1=           0
         NFxFlg=           0 DoJE=T BraDBF=F KetDBF=T FulRan=T
         wScrn=  0.000000 ICntrl=     500 IOpCl=  0 I1Cent=   200000004 NGrid=           0
         NMat0=    1 NMatS0=      1 NMatT0=    0 NMatD0=    1 NMtDS0=    0 NMtDT0=    0
 Symmetry not used in FoFCou.
 Harris En= -624.228372537595    
 JPrj=0 DoOrth=F DoCkMO=F.
 Leave Link  401 at Mon Oct 16 10:07:14 2017, MaxMem=   402653184 cpu:        11.9
 (Enter /usr/local/gaussian/G09_D01/g09/l502.exe)
 Closed shell SCF:
 Using DIIS extrapolation, IDIIS=  1040.
 Two-electron integral symmetry not used.
 Keep R1 ints in memory in canonical form, NReq=87346028.
 IVT=      100277 IEndB=      100277 NGot=   402653184 MDV=   317512547
 LenX=   317512547 LenY=   317485537
 Requested convergence on RMS density matrix=1.00D-08 within 128 cycles.
 Requested convergence on MAX density matrix=1.00D-06.
 Requested convergence on             energy=1.00D-06.
 No special actions if energy rises.
 FoFCou: FMM=F IPFlag=           0 FMFlag=           0 FMFlg1=           0
         NFxFlg=           0 DoJE=F BraDBF=F KetDBF=F FulRan=T
         wScrn=  0.000000 ICntrl=     600 IOpCl=  0 I1Cent=           0 NGrid=           0
         NMat0=    1 NMatS0=  13041 NMatT0=    0 NMatD0=    1 NMtDS0=    0 NMtDT0=    0
 Symmetry not used in FoFCou.

 Cycle   1  Pass 1  IDiag  1:
 Defaulting to unpruned grid for atomic number  44.
 Defaulting to unpruned grid for atomic number  44.
 Defaulting to unpruned grid for atomic number  44.
 Defaulting to unpruned grid for atomic number  44.
 E= -619.120817524788    
 DIIS: error= 2.67D-01 at cycle   1 NSaved=   1.
 NSaved= 1 IEnMin= 1 EnMin= -619.120817524788     IErMin= 1 ErrMin= 2.67D-01
 ErrMax= 2.67D-01  0.00D+00 EMaxC= 1.00D-01 BMatC= 2.97D+00 BMatP= 2.97D+00
 IDIUse=3 WtCom= 0.00D+00 WtEn= 1.00D+00
 Coeff-Com:  0.100D+01
 Coeff-En:   0.100D+01
 Coeff:      0.100D+01
 Gap=     0.014 Goal=   None    Shift=    0.000
 GapD=    0.014 DampG=0.250 DampE=0.125 DampFc=0.1250 IDamp=-1.
 Damping current iteration by 1.25D-01
 RMSDP=1.12D-01 MaxDP=3.89D+00              OVMax= 9.54D-01

 Cycle   2  Pass 1  IDiag  1:
 E= -620.275171879476     Delta-E=       -1.154354354688 Rises=F Damp=T
 DIIS: error= 9.39D-02 at cycle   2 NSaved=   2.
 NSaved= 2 IEnMin= 2 EnMin= -620.275171879476     IErMin= 2 ErrMin= 9.39D-02
 ErrMax= 9.39D-02  0.00D+00 EMaxC= 1.00D-01 BMatC= 9.01D-01 BMatP= 2.97D+00
 IDIUse=3 WtCom= 6.11D-02 WtEn= 9.39D-01
 Coeff-Com: -0.618D+00 0.162D+01
 Coeff-En:   0.175D+00 0.825D+00
 Coeff:      0.127D+00 0.873D+00
 Gap=    -0.351 Goal=   None    Shift=    0.000
 RMSDP=2.37D-02 MaxDP=9.45D-01 DE=-1.15D+00 OVMax= 9.88D-01

 Cycle   3  Pass 1  IDiag  1:
 E= -614.772850454177     Delta-E=        5.502321425299 Rises=F Damp=F
 DIIS: error= 1.44D-01 at cycle   3 NSaved=   3.
 NSaved= 3 IEnMin= 2 EnMin= -620.275171879476     IErMin= 2 ErrMin= 9.39D-02
 ErrMax= 1.44D-01  0.00D+00 EMaxC= 1.00D-01 BMatC= 4.10D+00 BMatP= 9.01D-01
 IDIUse=2 WtCom= 0.00D+00 WtEn= 1.00D+00
 EnCoef did   100 forward-backward iterations
 Coeff-En:   0.591D+00 0.161D-01 0.393D+00
 Coeff:      0.591D+00 0.161D-01 0.393D+00
 Gap=     0.014 Goal=   None    Shift=    0.000
 RMSDP=1.92D-02 MaxDP=9.43D-01 DE= 5.50D+00 OVMax= 9.97D-01

 Cycle   4  Pass 1  IDiag  1:
 E= -623.667737624651     Delta-E=       -8.894887170474 Rises=F Damp=F
 DIIS: error= 5.61D-02 at cycle   4 NSaved=   4.
 NSaved= 4 IEnMin= 4 EnMin= -623.667737624651     IErMin= 4 ErrMin= 5.61D-02
 ErrMax= 5.61D-02  0.00D+00 EMaxC= 1.00D-01 BMatC= 2.50D-01 BMatP= 9.01D-01
 IDIUse=3 WtCom= 4.39D-01 WtEn= 5.61D-01
 Coeff-Com: -0.138D-01 0.350D+00 0.281D-01 0.636D+00
 Coeff-En:   0.510D-01 0.000D+00 0.000D+00 0.949D+00
 Coeff:      0.226D-01 0.154D+00 0.123D-01 0.811D+00
 Gap=     0.327 Goal=   None    Shift=    0.000
 RMSDP=6.28D-03 MaxDP=1.67D-01 DE=-8.89D+00 OVMax= 1.93D-01

 Cycle   5  Pass 1  IDiag  1:
 E= -623.649861929291     Delta-E=        0.017875695361 Rises=F Damp=F
 DIIS: error= 4.67D-02 at cycle   5 NSaved=   5.
 NSaved= 5 IEnMin= 4 EnMin= -623.667737624651     IErMin= 5 ErrMin= 4.67D-02
 ErrMax= 4.67D-02  0.00D+00 EMaxC= 1.00D-01 BMatC= 2.79D-01 BMatP= 2.50D-01
 IDIUse=2 WtCom= 0.00D+00 WtEn= 1.00D+00
 Coeff-En:   0.000D+00 0.000D+00 0.000D+00 0.515D+00 0.485D+00
 Coeff:      0.000D+00 0.000D+00 0.000D+00 0.515D+00 0.485D+00
 Gap=     0.119 Goal=   None    Shift=    0.000
 RMSDP=4.41D-03 MaxDP=1.33D-01 DE= 1.79D-02 OVMax= 2.52D-01

 Cycle   6  Pass 1  IDiag  1:
 E= -623.833858699077     Delta-E=       -0.183996769786 Rises=F Damp=F
 DIIS: error= 2.37D-02 at cycle   6 NSaved=   6.
 NSaved= 6 IEnMin= 6 EnMin= -623.833858699077     IErMin= 6 ErrMin= 2.37D-02
 ErrMax= 2.37D-02  0.00D+00 EMaxC= 1.00D-01 BMatC= 7.63D-02 BMatP= 2.50D-01
 IDIUse=3 WtCom= 7.63D-01 WtEn= 2.37D-01
 EnCoef did     4 forward-backward iterations
 Coeff-Com: -0.168D-01 0.266D-04 0.116D-01 0.263D+00 0.301D+00 0.441D+00
 Coeff-En:   0.000D+00 0.000D+00 0.000D+00 0.189D+00 0.202D+00 0.610D+00
 Coeff:     -0.128D-01 0.203D-04 0.885D-02 0.245D+00 0.278D+00 0.481D+00
 Gap=     0.170 Goal=   None    Shift=    0.000
 RMSDP=2.24D-03 MaxDP=7.05D-02 DE=-1.84D-01 OVMax= 1.32D-01

 Cycle   7  Pass 1  IDiag  1:
 E= -623.913165818982     Delta-E=       -0.079307119905 Rises=F Damp=F
 DIIS: error= 4.48D-03 at cycle   7 NSaved=   7.
 NSaved= 7 IEnMin= 7 EnMin= -623.913165818982     IErMin= 7 ErrMin= 4.48D-03
 ErrMax= 4.48D-03  0.00D+00 EMaxC= 1.00D-01 BMatC= 2.19D-03 BMatP= 7.63D-02
 IDIUse=3 WtCom= 9.55D-01 WtEn= 4.48D-02
 Coeff-Com: -0.110D-01 0.999D-02 0.227D-02 0.308D-01 0.259D-01 0.175D+00
 Coeff-Com:  0.767D+00
 Coeff-En:   0.000D+00 0.000D+00 0.000D+00 0.000D+00 0.000D+00 0.000D+00
 Coeff-En:   0.100D+01
 Coeff:     -0.105D-01 0.954D-02 0.217D-02 0.294D-01 0.247D-01 0.167D+00
 Coeff:      0.778D+00
 Gap=     0.163 Goal=   None    Shift=    0.000
 RMSDP=4.75D-04 MaxDP=1.13D-02 DE=-7.93D-02 OVMax= 2.08D-02

 Cycle   8  Pass 1  IDiag  1:
 E= -623.914887608659     Delta-E=       -0.001721789677 Rises=F Damp=F
 DIIS: error= 2.04D-03 at cycle   8 NSaved=   8.
 NSaved= 8 IEnMin= 8 EnMin= -623.914887608659     IErMin= 8 ErrMin= 2.04D-03
 ErrMax= 2.04D-03  0.00D+00 EMaxC= 1.00D-01 BMatC= 5.15D-04 BMatP= 2.19D-03
 IDIUse=3 WtCom= 9.80D-01 WtEn= 2.04D-02
 Coeff-Com: -0.915D-02 0.172D-01-0.600D-04 0.738D-03-0.146D-01 0.279D-01
 Coeff-Com:  0.445D+00 0.533D+00
 Coeff-En:   0.000D+00 0.000D+00 0.000D+00 0.000D+00 0.000D+00 0.000D+00
 Coeff-En:   0.205D+00 0.795D+00
 Coeff:     -0.896D-02 0.168D-01-0.588D-04 0.723D-03-0.143D-01 0.273D-01
 Coeff:      0.440D+00 0.539D+00
 Gap=     0.169 Goal=   None    Shift=    0.000
 RMSDP=2.11D-04 MaxDP=7.16D-03 DE=-1.72D-03 OVMax= 1.28D-02

 Cycle   9  Pass 1  IDiag  1:
 E= -623.915449333973     Delta-E=       -0.000561725314 Rises=F Damp=F
 DIIS: error= 8.39D-04 at cycle   9 NSaved=   9.
 NSaved= 9 IEnMin= 9 EnMin= -623.915449333973     IErMin= 9 ErrMin= 8.39D-04
 ErrMax= 8.39D-04  0.00D+00 EMaxC= 1.00D-01 BMatC= 5.20D-05 BMatP= 5.15D-04
 IDIUse=3 WtCom= 9.92D-01 WtEn= 8.39D-03
 Coeff-Com: -0.671D-02 0.127D-01-0.245D-03 0.185D-02-0.606D-02 0.164D-01
 Coeff-Com:  0.242D+00 0.354D+00 0.385D+00
 Coeff-En:   0.000D+00 0.000D+00 0.000D+00 0.000D+00 0.000D+00 0.000D+00
 Coeff-En:   0.000D+00 0.000D+00 0.100D+01
 Coeff:     -0.665D-02 0.126D-01-0.243D-03 0.183D-02-0.601D-02 0.163D-01
 Coeff:      0.240D+00 0.351D+00 0.391D+00
 Gap=     0.169 Goal=   None    Shift=    0.000
 RMSDP=3.83D-05 MaxDP=7.99D-04 DE=-5.62D-04 OVMax= 1.38D-03

 Cycle  10  Pass 1  IDiag  1:
 E= -623.915497360298     Delta-E=       -0.000048026325 Rises=F Damp=F
 DIIS: error= 5.30D-04 at cycle  10 NSaved=  10.
 NSaved=10 IEnMin=10 EnMin= -623.915497360298     IErMin=10 ErrMin= 5.30D-04
 ErrMax= 5.30D-04  0.00D+00 EMaxC= 1.00D-01 BMatC= 1.73D-05 BMatP= 5.20D-05
 IDIUse=3 WtCom= 9.95D-01 WtEn= 5.30D-03
 Coeff-Com: -0.171D-02 0.348D-02-0.962D-04-0.110D-02-0.537D-03-0.431D-02
 Coeff-Com: -0.516D-01 0.525D-01-0.460D+00 0.146D+01
 Coeff-En:   0.000D+00 0.000D+00 0.000D+00 0.000D+00 0.000D+00 0.000D+00
 Coeff-En:   0.000D+00 0.000D+00 0.000D+00 0.100D+01
 Coeff:     -0.170D-02 0.346D-02-0.957D-04-0.109D-02-0.534D-03-0.429D-02
 Coeff:     -0.513D-01 0.523D-01-0.458D+00 0.146D+01
 Gap=     0.170 Goal=   None    Shift=    0.000
 RMSDP=4.48D-05 MaxDP=9.26D-04 DE=-4.80D-05 OVMax= 2.91D-03

 Cycle  11  Pass 1  IDiag  1:
 E= -623.915519371768     Delta-E=       -0.000022011470 Rises=F Damp=F
 DIIS: error= 2.10D-04 at cycle  11 NSaved=  11.
 NSaved=11 IEnMin=11 EnMin= -623.915519371768     IErMin=11 ErrMin= 2.10D-04
 ErrMax= 2.10D-04  0.00D+00 EMaxC= 1.00D-01 BMatC= 3.74D-06 BMatP= 1.73D-05
 IDIUse=3 WtCom= 9.98D-01 WtEn= 2.10D-03
 Coeff-Com: -0.558D-04 0.112D-03-0.118D-04-0.474D-03 0.749D-03-0.616D-03
 Coeff-Com: -0.355D-01-0.162D-01-0.429D+00 0.609D+00 0.872D+00
 Coeff-En:   0.000D+00 0.000D+00 0.000D+00 0.000D+00 0.000D+00 0.000D+00
 Coeff-En:   0.000D+00 0.000D+00 0.000D+00 0.000D+00 0.100D+01
 Coeff:     -0.556D-04 0.112D-03-0.118D-04-0.473D-03 0.747D-03-0.615D-03
 Coeff:     -0.354D-01-0.161D-01-0.428D+00 0.608D+00 0.872D+00
 Gap=     0.170 Goal=   None    Shift=    0.000
 RMSDP=1.81D-05 MaxDP=4.29D-04 DE=-2.20D-05 OVMax= 6.59D-04

 Cycle  12  Pass 1  IDiag  1:
 E= -623.915523761003     Delta-E=       -0.000004389236 Rises=F Damp=F
 DIIS: error= 3.82D-05 at cycle  12 NSaved=  12.
 NSaved=12 IEnMin=12 EnMin= -623.915523761003     IErMin=12 ErrMin= 3.82D-05
 ErrMax= 3.82D-05  0.00D+00 EMaxC= 1.00D-01 BMatC= 9.05D-08 BMatP= 3.74D-06
 IDIUse=1 WtCom= 1.00D+00 WtEn= 0.00D+00
 Coeff-Com: -0.503D-07-0.229D-04 0.231D-05-0.115D-03 0.388D-03 0.439D-03
 Coeff-Com: -0.111D-01-0.724D-02-0.195D+00 0.227D+00 0.450D+00 0.536D+00
 Coeff:     -0.503D-07-0.229D-04 0.231D-05-0.115D-03 0.388D-03 0.439D-03
 Coeff:     -0.111D-01-0.724D-02-0.195D+00 0.227D+00 0.450D+00 0.536D+00
 Gap=     0.170 Goal=   None    Shift=    0.000
 RMSDP=2.26D-06 MaxDP=5.77D-05 DE=-4.39D-06 OVMax= 1.66D-04

 Cycle  13  Pass 1  IDiag  1:
 E= -623.915523847096     Delta-E=       -0.000000086093 Rises=F Damp=F
 DIIS: error= 6.33D-06 at cycle  13 NSaved=  13.
 NSaved=13 IEnMin=13 EnMin= -623.915523847096     IErMin=13 ErrMin= 6.33D-06
 ErrMax= 6.33D-06  0.00D+00 EMaxC= 1.00D-01 BMatC= 6.53D-09 BMatP= 9.05D-08
 IDIUse=1 WtCom= 1.00D+00 WtEn= 0.00D+00
 Coeff-Com:  0.306D-05-0.417D-05-0.138D-05-0.227D-05 0.735D-04 0.145D-03
 Coeff-Com: -0.126D-02-0.148D-02-0.373D-01 0.360D-01 0.106D+00 0.234D+00
 Coeff-Com:  0.664D+00
 Coeff:      0.306D-05-0.417D-05-0.138D-05-0.227D-05 0.735D-04 0.145D-03
 Coeff:     -0.126D-02-0.148D-02-0.373D-01 0.360D-01 0.106D+00 0.234D+00
 Coeff:      0.664D+00
 Gap=     0.170 Goal=   None    Shift=    0.000
 RMSDP=6.59D-07 MaxDP=1.61D-05 DE=-8.61D-08 OVMax= 3.32D-05

 Cycle  14  Pass 1  IDiag  1:
 E= -623.915523853774     Delta-E=       -0.000000006678 Rises=F Damp=F
 DIIS: error= 1.91D-06 at cycle  14 NSaved=  14.
 NSaved=14 IEnMin=14 EnMin= -623.915523853774     IErMin=14 ErrMin= 1.91D-06
 ErrMax= 1.91D-06  0.00D+00 EMaxC= 1.00D-01 BMatC= 4.36D-10 BMatP= 6.53D-09
 IDIUse=1 WtCom= 1.00D+00 WtEn= 0.00D+00
 Coeff-Com:  0.339D-05-0.470D-05-0.720D-06 0.280D-05 0.207D-04 0.533D-04
 Coeff-Com: -0.134D-03-0.338D-03-0.900D-02 0.759D-02 0.292D-01 0.868D-01
 Coeff-Com:  0.322D+00 0.564D+00
 Coeff:      0.339D-05-0.470D-05-0.720D-06 0.280D-05 0.207D-04 0.533D-04
 Coeff:     -0.134D-03-0.338D-03-0.900D-02 0.759D-02 0.292D-01 0.868D-01
 Coeff:      0.322D+00 0.564D+00
 Gap=     0.170 Goal=   None    Shift=    0.000
 RMSDP=1.94D-07 MaxDP=3.64D-06 DE=-6.68D-09 OVMax= 1.22D-05

 Cycle  15  Pass 1  IDiag  1:
 E= -623.915523854177     Delta-E=       -0.000000000403 Rises=F Damp=F
 DIIS: error= 8.02D-07 at cycle  15 NSaved=  15.
 NSaved=15 IEnMin=15 EnMin= -623.915523854177     IErMin=15 ErrMin= 8.02D-07
 ErrMax= 8.02D-07  0.00D+00 EMaxC= 1.00D-01 BMatC= 8.16D-11 BMatP= 4.36D-10
 IDIUse=1 WtCom= 1.00D+00 WtEn= 0.00D+00
 Coeff-Com:  0.133D-05-0.215D-05-0.146D-06 0.133D-06-0.403D-05 0.603D-05
 Coeff-Com:  0.189D-03 0.207D-03 0.236D-02-0.235D-02-0.549D-02-0.323D-03
 Coeff-Com:  0.420D-01 0.303D+00 0.661D+00
 Coeff:      0.133D-05-0.215D-05-0.146D-06 0.133D-06-0.403D-05 0.603D-05
 Coeff:      0.189D-03 0.207D-03 0.236D-02-0.235D-02-0.549D-02-0.323D-03
 Coeff:      0.420D-01 0.303D+00 0.661D+00
 Gap=     0.170 Goal=   None    Shift=    0.000
 RMSDP=9.01D-08 MaxDP=1.64D-06 DE=-4.03D-10 OVMax= 4.92D-06

 Cycle  16  Pass 1  IDiag  1:
 E= -623.915523854280     Delta-E=       -0.000000000103 Rises=F Damp=F
 DIIS: error= 1.86D-07 at cycle  16 NSaved=  16.
 NSaved=16 IEnMin=16 EnMin= -623.915523854280     IErMin=16 ErrMin= 1.86D-07
 ErrMax= 1.86D-07  0.00D+00 EMaxC= 1.00D-01 BMatC= 6.28D-12 BMatP= 8.16D-11
 IDIUse=1 WtCom= 1.00D+00 WtEn= 0.00D+00
 Coeff-Com:  0.886D-06-0.158D-05-0.791D-07-0.821D-06-0.300D-05-0.182D-06
 Coeff-Com:  0.698D-04 0.115D-03 0.143D-02-0.122D-02-0.378D-02-0.484D-02
 Coeff-Com:  0.886D-03 0.106D+00 0.312D+00 0.590D+00
 Coeff:      0.886D-06-0.158D-05-0.791D-07-0.821D-06-0.300D-05-0.182D-06
 Coeff:      0.698D-04 0.115D-03 0.143D-02-0.122D-02-0.378D-02-0.484D-02
 Coeff:      0.886D-03 0.106D+00 0.312D+00 0.590D+00
 Gap=     0.170 Goal=   None    Shift=    0.000
 RMSDP=2.16D-08 MaxDP=4.31D-07 DE=-1.03D-10 OVMax= 9.58D-07

 Cycle  17  Pass 1  IDiag  1:
 E= -623.915523854275     Delta-E=        0.000000000005 Rises=F Damp=F
 DIIS: error= 1.27D-07 at cycle  17 NSaved=  17.
 NSaved=17 IEnMin=16 EnMin= -623.915523854280     IErMin=17 ErrMin= 1.27D-07
 ErrMax= 1.27D-07  0.00D+00 EMaxC= 1.00D-01 BMatC= 1.23D-12 BMatP= 6.28D-12
 IDIUse=1 WtCom= 1.00D+00 WtEn= 0.00D+00
 Coeff-Com:  0.131D-06-0.257D-06-0.111D-07-0.828D-06-0.972D-06-0.114D-05
 Coeff-Com: -0.146D-04 0.256D-04 0.101D-03 0.126D-03-0.406D-03-0.208D-02
 Coeff-Com: -0.894D-02-0.198D-01-0.290D-02 0.278D+00 0.756D+00
 Coeff:      0.131D-06-0.257D-06-0.111D-07-0.828D-06-0.972D-06-0.114D-05
 Coeff:     -0.146D-04 0.256D-04 0.101D-03 0.126D-03-0.406D-03-0.208D-02
 Coeff:     -0.894D-02-0.198D-01-0.290D-02 0.278D+00 0.756D+00
 Gap=     0.170 Goal=   None    Shift=    0.000
 RMSDP=1.32D-08 MaxDP=2.57D-07 DE= 5.00D-12 OVMax= 4.92D-07

 Cycle  18  Pass 1  IDiag  1:
 E= -623.915523854286     Delta-E=       -0.000000000012 Rises=F Damp=F
 DIIS: error= 1.30D-08 at cycle  18 NSaved=  18.
 NSaved=18 IEnMin=18 EnMin= -623.915523854286     IErMin=18 ErrMin= 1.30D-08
 ErrMax= 1.30D-08  0.00D+00 EMaxC= 1.00D-01 BMatC= 1.84D-14 BMatP= 1.23D-12
 IDIUse=1 WtCom= 1.00D+00 WtEn= 0.00D+00
 Coeff-Com:  0.130D-08-0.218D-07 0.162D-08-0.165D-06 0.822D-07-0.136D-06
 Coeff-Com: -0.713D-05-0.492D-05-0.877D-04 0.103D-03 0.238D-03 0.296D-03
 Coeff-Com: -0.507D-03-0.729D-02-0.189D-01-0.282D-01 0.319D-01 0.102D+01
 Coeff:      0.130D-08-0.218D-07 0.162D-08-0.165D-06 0.822D-07-0.136D-06
 Coeff:     -0.713D-05-0.492D-05-0.877D-04 0.103D-03 0.238D-03 0.296D-03
 Coeff:     -0.507D-03-0.729D-02-0.189D-01-0.282D-01 0.319D-01 0.102D+01
 Gap=     0.170 Goal=   None    Shift=    0.000
 RMSDP=3.31D-09 MaxDP=1.29D-07 DE=-1.16D-11 OVMax= 1.68D-07

 SCF Done:  E(RB3LYP) =  -623.915523854     A.U. after   18 cycles
            NFock= 18  Conv=0.33D-08     -V/T= 2.1039
 KE= 5.652160433131D+02 PE=-3.372623842970D+03 EE= 1.199126658627D+03
 Leave Link  502 at Mon Oct 16 10:07:39 2017, MaxMem=   402653184 cpu:        92.7
 (Enter /usr/local/gaussian/G09_D01/g09/l601.exe)
 Copying SCF densities to generalized density rwf, IOpCl= 0 IROHF=0.

 **********************************************************************

            Population analysis using the SCF density.

 **********************************************************************

 Alpha  occ. eigenvalues --  -14.63344 -14.62079 -14.61529 -14.61389 -14.59528
 Alpha  occ. eigenvalues --  -14.59168 -10.45220 -10.45216 -10.40950 -10.40936
 Alpha  occ. eigenvalues --  -10.40761  -3.09899  -1.97874  -1.97841  -1.97746
 Alpha  occ. eigenvalues --   -1.28250  -1.27738  -1.23836  -1.23504  -1.23033
 Alpha  occ. eigenvalues --   -1.22103  -1.06549  -1.02983  -0.90286  -0.89622
 Alpha  occ. eigenvalues --   -0.85659  -0.85191  -0.84151  -0.83673  -0.80924
 Alpha  occ. eigenvalues --   -0.80410  -0.79829  -0.79530  -0.76218  -0.74489
 Alpha  occ. eigenvalues --   -0.74269  -0.73906  -0.73855  -0.69642  -0.69350
 Alpha  occ. eigenvalues --   -0.67261  -0.66345  -0.66296  -0.64999  -0.61939
 Alpha  occ. eigenvalues --   -0.61735  -0.61112  -0.56781  -0.54218  -0.50902
 Alpha  occ. eigenvalues --   -0.44538  -0.44429  -0.43689
 Alpha virt. eigenvalues --   -0.26696  -0.25919  -0.24728  -0.24142  -0.23330
 Alpha virt. eigenvalues --   -0.21984  -0.21206  -0.19512  -0.15704  -0.13324
 Alpha virt. eigenvalues --   -0.12284  -0.10840  -0.10436  -0.09454  -0.09327
 Alpha virt. eigenvalues --   -0.08947  -0.08107  -0.06840  -0.05757  -0.04920
 Alpha virt. eigenvalues --   -0.04098  -0.03891  -0.03294  -0.02786  -0.02276
 Alpha virt. eigenvalues --   -0.01819  -0.00419   0.00421   0.03123   0.05884
 Alpha virt. eigenvalues --    0.06970   0.07327   0.08018   0.10369   0.10788
 Alpha virt. eigenvalues --    0.11212   0.18592   0.22285   0.22992   0.28237
 Alpha virt. eigenvalues --    0.29883   0.31989   0.32241   0.35902   0.37052
 Alpha virt. eigenvalues --    0.37644   0.38640   0.40023   0.42595   0.43629
 Alpha virt. eigenvalues --    0.43867   0.44614   0.45222   0.49514   0.51967
 Alpha virt. eigenvalues --    0.52985   0.55205   0.55353   0.56895   0.61609
 Alpha virt. eigenvalues --    0.63552   0.64265   0.64884   0.66821   0.68213
 Alpha virt. eigenvalues --    0.69379   0.69764   0.70636   0.70799   0.71524
 Alpha virt. eigenvalues --    0.72842   0.73588   0.74475   0.75799   0.75901
 Alpha virt. eigenvalues --    0.77232   0.77618   0.79041   0.80090   0.80283
 Alpha virt. eigenvalues --    0.80606   0.82349   0.82606   0.85247   0.85480
 Alpha virt. eigenvalues --    0.87149   0.87545   0.88056   0.89448   0.90984
 Alpha virt. eigenvalues --    0.93016   0.93672   0.94957   0.96694   1.01604
 Alpha virt. eigenvalues --    1.06796   1.09574   1.12325   1.21108   1.29249
 Alpha virt. eigenvalues --    1.31500   1.34938   1.35731   1.40252   1.47827
 Alpha virt. eigenvalues --    1.60585   1.72745   4.74402
          Condensed to atoms (all electrons):
               1          2          3          4          5          6
     1  Ru  15.043258   0.104303  -0.027087   0.000968  -0.001485   0.052081
     2  N    0.104303   7.040672   0.338326  -0.037739  -0.057613  -0.001417
     3  C   -0.027087   0.338326   4.834723   0.540061  -0.030937   0.000042
     4  C    0.000968  -0.037739   0.540061   4.794854   0.535299   0.000000
     5  C   -0.001485  -0.057613  -0.030937   0.535299   4.771620   0.000000
     6  N    0.052081  -0.001417   0.000042   0.000000   0.000000   6.880922
     7  N    0.076527  -0.005011   0.000122  -0.000005   0.000001  -0.007832
     8  N    0.068444  -0.002607   0.000303  -0.000021   0.000004  -0.009412
     9  H   -0.003532  -0.067279   0.376168  -0.033312   0.006400   0.000014
    10  H    0.000394   0.006821  -0.043904   0.380607  -0.038250   0.000000
    11  H    0.000326  -0.000063   0.008011  -0.042620   0.380202   0.000000
    12  H   -0.004890  -0.000063  -0.000225  -0.000008  -0.000019   0.000290
    13  H   -0.013872   0.000265   0.000016  -0.000001   0.000000   0.000311
    14  H   -0.021466   0.000385   0.000005  -0.000001   0.000000  -0.000068
    15  H   -0.013739   0.000302   0.000075   0.000000   0.000000   0.000302
    16  H   -0.002798  -0.000138   0.000000   0.000000   0.000000  -0.000017
    17  H   -0.033746   0.000180  -0.000007   0.000000   0.000000  -0.000435
    18  C    0.000962  -0.037589  -0.035528  -0.049112   0.535354   0.000000
    19  C   -0.027480   0.337600  -0.079207  -0.035588  -0.031001   0.000038
    20  H   -0.003807  -0.067563   0.005044   0.001273   0.006400   0.000016
    21  H    0.000388   0.006829   0.000151   0.008739  -0.038215   0.000000
    22  N    0.078374  -0.005024  -0.003628   0.000130   0.000001  -0.003874
    23  H   -0.005915  -0.000123   0.009403  -0.000090  -0.000020   0.000310
    24  H   -0.011908   0.000253   0.000067   0.000007   0.000000   0.000127
    25  H   -0.020065   0.000386  -0.000324   0.000007   0.000000   0.000097
    26  N    0.066363  -0.002469  -0.000592   0.000062   0.000004  -0.009052
    27  H   -0.014183   0.000315   0.000468  -0.000041   0.000000   0.000283
    28  H   -0.002151  -0.000101   0.000135  -0.000026   0.000000  -0.000040
    29  H   -0.033106   0.000172  -0.000010   0.000007   0.000000   0.000238
    30  H   -0.011515   0.000015  -0.000003   0.000000   0.000000   0.323331
    31  H   -0.010689   0.000012   0.000000   0.000000   0.000000   0.317528
    32  H   -0.024874   0.000024   0.000001   0.000000   0.000000   0.308116
               7          8          9         10         11         12
     1  Ru   0.076527   0.068444  -0.003532   0.000394   0.000326  -0.004890
     2  N   -0.005011  -0.002607  -0.067279   0.006821  -0.000063  -0.000063
     3  C    0.000122   0.000303   0.376168  -0.043904   0.008011  -0.000225
     4  C   -0.000005  -0.000021  -0.033312   0.380607  -0.042620  -0.000008
     5  C    0.000001   0.000004   0.006400  -0.038250   0.380202  -0.000019
     6  N   -0.007832  -0.009412   0.000014   0.000000   0.000000   0.000290
     7  N    6.614362  -0.003696  -0.000013   0.000000   0.000000   0.339585
     8  N   -0.003696   6.766482  -0.000023   0.000000   0.000000  -0.000095
     9  H   -0.000013  -0.000023   0.602298  -0.006761  -0.000340   0.000000
    10  H    0.000000   0.000000  -0.006761   0.546844  -0.008292   0.000000
    11  H    0.000000   0.000000  -0.000340  -0.008292   0.536553   0.000000
    12  H    0.339585  -0.000095   0.000000   0.000000   0.000000   0.348013
    13  H    0.366071   0.000449   0.000000   0.000000   0.000000  -0.028322
    14  H    0.348154   0.000682   0.000001   0.000000   0.000000  -0.036707
    15  H    0.000133   0.331343   0.000006   0.000000   0.000000   0.000011
    16  H   -0.000088   0.345932   0.000001   0.000000   0.000000  -0.000138
    17  H    0.000077   0.305889   0.000000   0.000000   0.000000   0.000000
    18  C    0.000128   0.000057   0.001268   0.008730  -0.042621  -0.000086
    19  C   -0.003713  -0.000675   0.005052   0.000155   0.008016   0.009445
    20  H   -0.001038   0.000802  -0.000355   0.000022  -0.000342   0.002124
    21  H   -0.000002  -0.000003   0.000022  -0.000283  -0.008299   0.000009
    22  N   -0.001125  -0.004994  -0.001035  -0.000002   0.000000   0.000013
    23  H    0.000016  -0.000331   0.002085   0.000009   0.000000  -0.000006
    24  H   -0.000012  -0.000522   0.000074   0.000000   0.000000   0.000004
    25  H    0.000003   0.000259   0.000374  -0.000001   0.000000   0.000001
    26  N   -0.005118  -0.001015   0.000859  -0.000003   0.000000  -0.000309
    27  H    0.000584   0.000014   0.000084  -0.000001   0.000000   0.000002
    28  H    0.000261   0.000004   0.000249  -0.000001   0.000000  -0.000010
    29  H    0.000787   0.000024  -0.000024   0.000000   0.000000   0.000027
    30  H    0.000090   0.000157  -0.000001   0.000000   0.000000   0.000007
    31  H    0.000156   0.000655   0.000000   0.000000   0.000000   0.000007
    32  H    0.000481  -0.000035   0.000000   0.000000   0.000000  -0.000196
              13         14         15         16         17         18
     1  Ru  -0.013872  -0.021466  -0.013739  -0.002798  -0.033746   0.000962
     2  N    0.000265   0.000385   0.000302  -0.000138   0.000180  -0.037589
     3  C    0.000016   0.000005   0.000075   0.000000  -0.000007  -0.035528
     4  C   -0.000001  -0.000001   0.000000   0.000000   0.000000  -0.049112
     5  C    0.000000   0.000000   0.000000   0.000000   0.000000   0.535354
     6  N    0.000311  -0.000068   0.000302  -0.000017  -0.000435   0.000000
     7  N    0.366071   0.348154   0.000133  -0.000088   0.000077   0.000128
     8  N    0.000449   0.000682   0.331343   0.345932   0.305889   0.000057
     9  H    0.000000   0.000001   0.000006   0.000001   0.000000   0.001268
    10  H    0.000000   0.000000   0.000000   0.000000   0.000000   0.008730
    11  H    0.000000   0.000000   0.000000   0.000000   0.000000  -0.042621
    12  H   -0.028322  -0.036707   0.000011  -0.000138   0.000000  -0.000086
    13  H    0.456908  -0.054141   0.000015  -0.000154   0.000008   0.000007
    14  H   -0.054141   0.469651  -0.000151   0.001481  -0.000189   0.000007
    15  H    0.000015  -0.000151   0.433887  -0.032731  -0.057035  -0.000042
    16  H   -0.000154   0.001481  -0.032731   0.373407  -0.037266  -0.000026
    17  H    0.000008  -0.000189  -0.057035  -0.037266   0.507877   0.000007
    18  C    0.000007   0.000007  -0.000042  -0.000026   0.000007   4.794921
    19  C    0.000049  -0.000334   0.000447   0.000166  -0.000021   0.540057
    20  H    0.000082   0.000356   0.000080   0.000269  -0.000026  -0.033476
    21  H    0.000000  -0.000001  -0.000001  -0.000001   0.000000   0.380525
    22  N   -0.000009   0.000002   0.000612   0.000266   0.000683  -0.000004
    23  H    0.000004   0.000001  -0.000010  -0.000011   0.000027  -0.000008
    24  H    0.000000  -0.000010   0.000826  -0.000089   0.000386  -0.000001
    25  H   -0.000010   0.000006  -0.000166   0.000016  -0.000047  -0.000001
    26  N   -0.000522   0.000228   0.000015   0.000002   0.000024  -0.000022
    27  H    0.000883  -0.000172   0.000001  -0.000004   0.000005   0.000000
    28  H   -0.000090   0.000016  -0.000004   0.000001   0.000000   0.000000
    29  H    0.000323  -0.000041   0.000005   0.000000  -0.000018   0.000000
    30  H   -0.000176  -0.000007   0.000014   0.000001  -0.000287   0.000000
    31  H   -0.000111  -0.000070  -0.000290  -0.000059   0.004463   0.000000
    32  H    0.002307   0.000711   0.000002  -0.000018   0.000091   0.000000
              19         20         21         22         23         24
     1  Ru  -0.027480  -0.003807   0.000388   0.078374  -0.005915  -0.011908
     2  N    0.337600  -0.067563   0.006829  -0.005024  -0.000123   0.000253
     3  C   -0.079207   0.005044   0.000151  -0.003628   0.009403   0.000067
     4  C   -0.035588   0.001273   0.008739   0.000130  -0.000090   0.000007
     5  C   -0.031001   0.006400  -0.038215   0.000001  -0.000020   0.000000
     6  N    0.000038   0.000016   0.000000  -0.003874   0.000310   0.000127
     7  N   -0.003713  -0.001038  -0.000002  -0.001125   0.000016  -0.000012
     8  N   -0.000675   0.000802  -0.000003  -0.004994  -0.000331  -0.000522
     9  H    0.005052  -0.000355   0.000022  -0.001035   0.002085   0.000074
    10  H    0.000155   0.000022  -0.000283  -0.000002   0.000009   0.000000
    11  H    0.008016  -0.000342  -0.008299   0.000000   0.000000   0.000000
    12  H    0.009445   0.002124   0.000009   0.000013  -0.000006   0.000004
    13  H    0.000049   0.000082   0.000000  -0.000009   0.000004   0.000000
    14  H   -0.000334   0.000356  -0.000001   0.000002   0.000001  -0.000010
    15  H    0.000447   0.000080  -0.000001   0.000612  -0.000010   0.000826
    16  H    0.000166   0.000269  -0.000001   0.000266  -0.000011  -0.000089
    17  H   -0.000021  -0.000026   0.000000   0.000683   0.000027   0.000386
    18  C    0.540057  -0.033476   0.380525  -0.000004  -0.000008  -0.000001
    19  C    4.835947   0.375949  -0.044023   0.000106  -0.000229   0.000013
    20  H    0.375949   0.604570  -0.006734  -0.000013   0.000000   0.000000
    21  H   -0.044023  -0.006734   0.547229   0.000000   0.000000   0.000000
    22  N    0.000106  -0.000013   0.000000   6.608501   0.338555   0.368016
    23  H   -0.000229   0.000000   0.000000   0.338555   0.352487  -0.028286
    24  H    0.000013   0.000000   0.000000   0.368016  -0.028286   0.448954
    25  H    0.000009   0.000001   0.000000   0.348294  -0.036728  -0.052888
    26  N    0.000321  -0.000025   0.000000  -0.003453  -0.000106   0.000462
    27  H    0.000076   0.000006   0.000000   0.000140   0.000010   0.000016
    28  H    0.000002   0.000001   0.000000  -0.000131  -0.000136  -0.000148
    29  H   -0.000007   0.000000   0.000000   0.000044  -0.000001  -0.000001
    30  H    0.000001   0.000000   0.000000  -0.000017  -0.000027   0.000269
    31  H   -0.000002  -0.000001   0.000000   0.000051  -0.000046   0.000201
    32  H   -0.000005   0.000000   0.000000   0.000119   0.000012  -0.000120
              25         26         27         28         29         30
     1  Ru  -0.020065   0.066363  -0.014183  -0.002151  -0.033106  -0.011515
     2  N    0.000386  -0.002469   0.000315  -0.000101   0.000172   0.000015
     3  C   -0.000324  -0.000592   0.000468   0.000135  -0.000010  -0.000003
     4  C    0.000007   0.000062  -0.000041  -0.000026   0.000007   0.000000
     5  C    0.000000   0.000004   0.000000   0.000000   0.000000   0.000000
     6  N    0.000097  -0.009052   0.000283  -0.000040   0.000238   0.323331
     7  N    0.000003  -0.005118   0.000584   0.000261   0.000787   0.000090
     8  N    0.000259  -0.001015   0.000014   0.000004   0.000024   0.000157
     9  H    0.000374   0.000859   0.000084   0.000249  -0.000024  -0.000001
    10  H   -0.000001  -0.000003  -0.000001  -0.000001   0.000000   0.000000
    11  H    0.000000   0.000000   0.000000   0.000000   0.000000   0.000000
    12  H    0.000001  -0.000309   0.000002  -0.000010   0.000027   0.000007
    13  H   -0.000010  -0.000522   0.000883  -0.000090   0.000323  -0.000176
    14  H    0.000006   0.000228  -0.000172   0.000016  -0.000041  -0.000007
    15  H   -0.000166   0.000015   0.000001  -0.000004   0.000005   0.000014
    16  H    0.000016   0.000002  -0.000004   0.000001   0.000000   0.000001
    17  H   -0.000047   0.000024   0.000005   0.000000  -0.000018  -0.000287
    18  C   -0.000001  -0.000022   0.000000   0.000000   0.000000   0.000000
    19  C    0.000009   0.000321   0.000076   0.000002  -0.000007   0.000001
    20  H    0.000001  -0.000025   0.000006   0.000001   0.000000   0.000000
    21  H    0.000000   0.000000   0.000000   0.000000   0.000000   0.000000
    22  N    0.348294  -0.003453   0.000140  -0.000131   0.000044  -0.000017
    23  H   -0.036728  -0.000106   0.000010  -0.000136  -0.000001  -0.000027
    24  H   -0.052888   0.000462   0.000016  -0.000148  -0.000001   0.000269
    25  H    0.465542   0.000564  -0.000148   0.001421  -0.000155   0.000101
    26  N    0.000564   6.767436   0.329708   0.346085   0.308241   0.000088
    27  H   -0.000148   0.329708   0.437246  -0.032869  -0.057045  -0.000091
    28  H    0.001421   0.346085  -0.032869   0.372114  -0.036763  -0.000084
    29  H   -0.000155   0.308241  -0.057045  -0.036763   0.502890   0.002248
    30  H    0.000101   0.000088  -0.000091  -0.000084   0.002248   0.441863
    31  H    0.000093   0.000089   0.000006   0.000003  -0.000219  -0.039014
    32  H   -0.000036   0.000197   0.000008   0.000013  -0.000009  -0.054330
              31         32
     1  Ru  -0.010689  -0.024874
     2  N    0.000012   0.000024
     3  C    0.000000   0.000001
     4  C    0.000000   0.000000
     5  C    0.000000   0.000000
     6  N    0.317528   0.308116
     7  N    0.000156   0.000481
     8  N    0.000655  -0.000035
     9  H    0.000000   0.000000
    10  H    0.000000   0.000000
    11  H    0.000000   0.000000
    12  H    0.000007  -0.000196
    13  H   -0.000111   0.002307
    14  H   -0.000070   0.000711
    15  H   -0.000290   0.000002
    16  H   -0.000059  -0.000018
    17  H    0.004463   0.000091
    18  C    0.000000   0.000000
    19  C   -0.000002  -0.000005
    20  H   -0.000001   0.000000
    21  H    0.000000   0.000000
    22  N    0.000051   0.000119
    23  H   -0.000046   0.000012
    24  H    0.000201  -0.000120
    25  H    0.000093  -0.000036
    26  N    0.000089   0.000197
    27  H    0.000006   0.000008
    28  H    0.000003   0.000013
    29  H   -0.000219  -0.000009
    30  H   -0.039014  -0.054330
    31  H    0.416987  -0.039329
    32  H   -0.039329   0.479341
 Mulliken charges:
               1
     1  Ru   0.795919
     2  N   -0.552061
     3  C    0.108332
     4  C   -0.063449
     5  C   -0.037747
     6  N   -0.851898
     7  N   -0.719884
     8  N   -0.798070
     9  H    0.117719
    10  H    0.153918
    11  H    0.169469
    12  H    0.371535
    13  H    0.269710
    14  H    0.291668
    15  H    0.336093
[...]
 00000617,0.00004779,0.00014100,0.00004404,-0.00019532,-0.00001534,-0.0
 0024205,0.00022689,0.00060548,0.00015449,-0.00036634,0.00006087,-0.001
 46702,-0.00010580,0.00006846,0.00003947,-0.00009408,-0.00002546,-0.000
 03372,0.00003063,-0.00004607,-0.00028561,0.00011478,-0.00088474,-0.000
 06785,-0.00049500,-0.00024788,0.00003028,0.00007737,-0.00001240,-0.000
 01331,0.00003438,0.00013914,0.00004162,-0.00000679,-0.00002472,0.00001
 377,0.00000348,-0.00006386,-0.00014871,-0.00007653,-0.00019827,-0.0001
 5997,0.00033198,-0.00010041,-0.00003215,0.00000224,-0.00013133,0.00001
 863,0.00000311,-0.00002719,-0.00009940,-0.00025635,-0.00001249,-0.0001
 6649,0.00004168,0.00017660,0.00001655,0.00004655,0.00000088,0.00000230
 ,0.00038096,0.00004554,-0.08579594,0.08131690,0.01476875,0.08585131,-0
 .00014230,0.00118549,-0.00148694,0.00043764,0.00152394,0.00065438,0.00
 017415,-0.00008053,-0.00081486,0.00010365,-0.00071873,-0.00005589,-0.0
 0028889,-0.00017497,-0.00029077,-0.00013418,-0.00004252,0.00022920,-0.
 00017870,-0.00000362,0.00013445,-0.00005458,0.00009326,0.00051723,-0.0
 0086225,0.00012530,0.00034207,-0.00006169,-0.00005750,0.00000614,-0.00
 003624,0.00000283,0.00000092,0.00017523,0.00025911,-0.00003872,-0.0001
 3659,-0.00015195,-0.00030989,0.00002698,-0.00001807,-0.00000488,-0.000
 03126,0.00010371,0.00008502,-0.00001593,0.00001996,0.00003463,0.000020
 65,-0.00001617,0.00003492,-0.00002004,0.00028249,0.00014161,0.00034299
 ,-0.00016832,0.00022296,-0.00003009,0.00000033,-0.00007171,0.00000721,
 -0.00000474,0.00000063,-0.00001632,-0.00005912,0.00003161,-0.00006667,
 0.00009447,0.00001107,0.00000340,0.00000163,-0.00000608,0.00013881,0.0
 0004240,-0.00011119,0.07409255,-0.36123732,-0.07529099,-0.08356205,0.3
 9286535,0.00473354,-0.01426654,-0.00890247,-0.00073265,-0.00079656,0.0
 0165910,0.00058480,0.00164334,0.00040432,0.00029146,0.00016788,0.00016
 913,0.00014026,0.00014586,0.00011989,0.00013870,0.00032231,-0.00066458
 ,-0.00010736,0.00020577,0.00079133,-0.00030181,0.00215499,-0.00064560,
 0.00070729,0.00015778,0.00033211,-0.00006398,-0.00002421,0.00006520,-0
 .00000383,-0.00001235,0.00003861,-0.00085346,-0.00011002,-0.00078909,-
 0.00025138,-0.00027249,-0.00016207,0.00014564,0.00003462,-0.00005217,0
 .00013143,-0.00007967,-0.00065660,0.00001980,-0.00001759,0.00004026,-0
 .00006871,-0.00001994,0.00039846,0.00015382,-0.00031688,-0.00013406,-0
 .00063533,0.00036194,-0.00070455,0.00002356,-0.00000019,0.00006430,0.0
 0000424,-0.00002092,-0.00001602,-0.00012332,0.00018409,0.00002410,0.00
 017486,-0.00007837,-0.00007196,-0.00009354,-0.00004051,-0.00003639,0.0
 0005305,-0.00009767,-0.00003299,0.02281102,-0.11759795,-0.06228179,-0.
 01880961,0.09301344,0.06438662,0.00489825,-0.00170980,0.00187126,-0.00
 013857,0.00009905,0.00017026,0.00015847,-0.00006319,0.00019567,-0.0000
 8353,0.00003065,-0.00010580,0.00001338,0.00002828,0.00001439,-0.000140
 34,-0.00014486,-0.00007365,-0.00003322,0.00002915,0.00023334,-0.000554
 36,0.00020662,0.00054501,0.00003337,-0.00023979,-0.00009966,0.00001776
 ,-0.00001145,-0.00000673,-0.00000327,0.00000567,-0.00001280,-0.0000852
 4,0.00001370,-0.00003754,0.00003203,-0.00001398,0.00016756,0.00001338,
 0.00003111,0.00003952,0.00003542,0.00001849,0.00001758,-0.00000783,-0.
 00000093,-0.00007407,0.00006482,-0.00001238,0.00025244,-0.00000333,-0.
 00000803,-0.00002564,0.00002874,0.00004284,0.00000507,-0.00001389,-0.0
 0001800,-0.00001166,0.00000276,0.00000125,-0.00000227,0.00124334,-0.00
 028524,0.00023702,-0.00001378,-0.00013091,-0.00007919,0.00008830,0.000
 16960,-0.00023661,-0.00116972,0.00013508,-0.00016709,-0.27594391,0.076
 00458,-0.13634118,-0.00748188,0.00045424,-0.00817091,0.30582227,-0.001
 23491,0.00116248,-0.00000379,-0.00018061,0.00011623,0.00022203,0.00080
 052,-0.00044622,0.00061700,-0.00022153,0.00016920,-0.00032416,0.000058
 39,0.00003759,0.00012292,-0.00020329,-0.00005244,0.00043938,0.00001673
 ,-0.00011252,-0.00037023,0.00012719,0.00004162,-0.00015294,-0.00043564
 ,-0.00022493,0.00007586,-0.00000427,-0.00007163,0.00000950,-0.00002170
 ,0.00001291,-0.00002189,-0.00000724,-0.00002826,-0.00006126,0.00023724
 ,0.00007370,0.00029542,-0.00003721,0.00010101,-0.00004184,0.00000697,0
 .00002519,0.00002090,-0.00000241,0.00003796,0.00002202,0.00002684,0.00
 005791,-0.00005010,-0.00002936,-0.00010023,-0.00006928,-0.00012410,0.0
 0004906,-0.00014324,-0.00003553,0.00000964,-0.00002456,0.00000436,-0.0
 0001072,-0.00001096,-0.00012705,-0.00066782,-0.00025354,-0.00014851,0.
 00004491,0.00025272,0.00012033,0.00016785,-0.00016624,-0.00016214,0.00
 093470,0.00042252,0.07742824,-0.09429046,0.04894204,0.03563048,-0.0104
 3891,0.02346728,-0.08704023,0.09573936,-0.01192263,0.00443376,-0.00928
 480,0.00015549,-0.00002970,-0.00031483,-0.00022990,0.00021685,-0.00041
 286,0.00014824,-0.00003290,0.00020685,-0.00003825,-0.00003271,-0.00004
 924,-0.00004765,0.00001525,0.00057924,0.00036628,-0.00008211,-0.000621
 05,0.00228917,-0.00073915,-0.00021309,0.00021870,0.00035933,0.00018694
 ,-0.00000881,0.00000404,0.00001740,0.00001028,-0.00000605,0.00002056,0
 .00012014,-0.00002913,0.00006410,0.00021434,0.00005358,0.00010404,-0.0
 0004730,0.00004771,0.00000771,-0.00002001,-0.00003582,0.00004146,-0.00
 007413,-0.00002560,0.00040797,0.00004977,0.00008259,-0.00072466,0.0000
 2261,0.00003541,0.00004306,-0.00003506,-0.00010777,-0.00001284,0.00001
 995,0.00000639,0.00003315,-0.00000148,-0.00000436,0.00000153,-0.000234
 97,0.00003778,0.00144488,-0.00008149,0.00012082,0.00011471,-0.00015659
 ,-0.00015701,0.00011254,0.00295314,0.00035250,-0.00054052,-0.17890802,
 0.06297676,-0.13960137,0.01087487,-0.00715480,0.00446446,0.16285082,-0
 .05871307,0.14054118,-0.00028283,-0.00045853,0.00119077,0.00005963,-0.
 00005791,-0.00002891,0.00004602,0.00000529,-0.00004503,-0.00000238,0.0
 0002820,-0.00002983,0.00001796,-0.00000269,0.00003323,0.00023948,0.000
 18096,-0.00047978,0.00038123,0.00035467,0.00021686,0.00037373,0.000228
 09,-0.00020077,-0.00010010,0.00004688,-0.00000609,0.00000350,-0.000005
 34,-0.00000579,0.00000233,0.00000030,-0.00000096,-0.00001027,0.0002844
 2,-0.00024454,-0.00031692,-0.00039049,-0.00060002,-0.00001632,-0.00020
 986,0.00014749,0.00001483,-0.00001897,-0.00006638,0.00006244,-0.000031
 52,0.00005208,-0.00000568,-0.00002108,-0.00002697,-0.00004894,-0.00003
 885,-0.00003563,-0.00000517,0.00013916,0.00002278,0.00001702,-0.000000
 59,-0.00004433,0.00000640,0.00000823,-0.00000552,-0.00000820,0.0000638
 9,0.00021121,-0.00002652,0.00000399,0.00002562,-0.00006118,-0.00007772
 ,0.00003463,0.00027927,-0.00012486,-0.00021911,-0.26503596,-0.15969447
 ,0.04968097,0.00823791,0.00963745,0.00019888,-0.02713350,-0.02465398,0
 .01148105,0.28358943,0.00145292,0.00228382,0.00014472,-0.00008946,-0.0
 0012095,-0.00000857,-0.00023547,0.00010660,0.00003820,-0.00000090,0.00
 000138,0.00007385,0.00000846,-0.00000774,-0.00003622,-0.00040216,-0.00
 005143,0.00076976,0.00037766,-0.00036127,-0.00057463,-0.00012601,-0.00
 007738,-0.00037633,0.00020475,-0.00016155,0.00009871,-0.00002487,-0.00
 000219,0.00002208,0.00000222,-0.00000401,0.00000761,0.00013798,-0.0001
 6490,0.00059857,0.00016776,0.00070270,0.00047824,-0.00006342,0.0000458
 4,-0.00000113,-0.00000391,-0.00001943,0.00002817,0.00000481,0.00005727
 ,-0.00008900,0.00002198,0.00006091,-0.00001066,0.00004227,0.00000495,0
 .00003943,0.00003933,-0.00011331,-0.00000567,-0.00000534,0.00000618,0.
 00003880,-0.00000818,-0.00000518,0.00000864,0.00013764,-0.00015336,-0.
 00029188,-0.00003105,-0.00000070,0.00000053,0.00008946,0.00008209,-0.0
 0006423,-0.00028691,0.00010986,0.00014088,-0.15319184,-0.18861760,0.04
 402061,-0.03500522,-0.02328681,0.01152453,0.01217977,0.00854011,-0.000
 36399,0.17410165,0.20188707,0.01263531,0.00962706,-0.00548343,-0.00001
 712,0.00001741,-0.00045664,0.00001177,-0.00021866,0.00012949,-0.000023
 69,0.00002497,-0.00004776,0.00001963,-0.00001719,0.00001403,-0.0004215
 8,-0.00020078,0.00144395,-0.00004395,0.00028068,0.00172431,-0.00161711
 ,-0.00143464,-0.00105139,-0.00004072,0.00000472,-0.00007950,-0.0000082
 6,-0.00001147,0.00000699,-0.00000115,0.00000319,-0.00000463,-0.0002578
 4,0.00022820,-0.00024192,-0.00236239,-0.00027168,-0.00134238,0.0002370
 6,-0.00033775,0.00015205,-0.00005310,-0.00003762,0.00039460,0.00024207
 ,0.00005912,-0.00071408,-0.00002026,0.00000950,0.00004952,-0.00006790,
 0.00000931,-0.00005243,0.00002244,0.00005348,0.00009813,0.00003595,0.0
 0000249,-0.00008853,-0.00000004,0.00000989,-0.00000059,-0.00018338,-0.
 00015372,-0.00051099,-0.00008838,0.00000133,-0.00002055,0.00008885,0.0
 0005817,-0.00002542,-0.00019000,0.00006449,-0.00003160,0.08321599,0.07
 253934,-0.05773679,-0.00845417,-0.00984706,0.00200827,-0.02093737,-0.0
 1365519,0.00401746,-0.06209812,-0.05524636,0.05882843,0.00147576,-0.00
 022482,0.00100016,0.00004042,-0.00018909,-0.00010110,-0.00000368,-0.00
 009674,0.00007190,-0.00004057,-0.00000105,0.00000046,0.00000616,-0.000
 00610,0.00000247,-0.16144904,0.05827587,-0.13853050,-0.00005562,0.0003
 0539,0.00005423,-0.00011319,-0.00041416,0.00007130,0.00005091,-0.00000
 577,-0.00005506,0.00000308,-0.00001033,-0.00000386,0.00000464,0.000000
 93,-0.00000465,-0.00004699,-0.00001081,-0.00004548,0.00003088,-0.00008
 766,-0.00020315,0.00002791,-0.00013566,0.00003050,0.00002956,-0.000011
 62,0.00005929,-0.00006695,0.00012212,-0.00011674,0.00020207,0.00014658
 ,0.00002438,0.00000249,-0.00000722,-0.00000586,-0.00000204,-0.00000546
 ,-0.00002668,-0.00000332,0.00000047,0.00000141,0.00000114,-0.00000334,
 -0.00000129,0.00009712,0.00091096,-0.00033193,0.00012319,0.00000657,0.
 00001616,-0.00057276,-0.00043786,0.00058610,-0.00036374,-0.00072822,-0
 .00025469,0.00009478,-0.00038428,0.00018393,-0.00012649,0.00001981,-0.
 00008298,0.00032989,0.00014882,-0.00001931,-0.00036421,0.00066149,0.00
 046418,0.17158695,0.00775450,-0.00764350,0.01207733,-0.00150193,-0.000
 81259,-0.00220912,0.00016642,-0.00067587,0.00021988,-0.00014501,-0.000
 08653,-0.00016639,-0.00000752,0.00001861,-0.00001186,0.08373628,-0.081
 01202,0.12216253,-0.00021798,-0.00049897,-0.00015597,-0.00005796,-0.00
 050952,-0.00027500,-0.00003892,-0.00004761,-0.00005600,0.,-0.00005729,
 0.00000175,0.00000146,-0.00000195,-0.00000098,0.00005553,0.00000060,0.
 00004799,0.00001012,0.00005292,0.00009664,-0.00017338,0.00007805,-0.00
 002420,0.00002007,0.00000814,0.00005537,0.00002668,0.00008117,-0.00019
 959,0.00008144,0.00005316,0.00000687,-0.00003892,0.00001048,-0.0000322
 0,-0.00004620,0.00050257,-0.00006062,0.00002031,0.00003479,0.00001923,
 0.00000172,0.00001493,0.00000256,0.00009367,0.00193655,-0.00043102,0.0
 0032692,-0.00008611,0.00001882,-0.00090588,-0.00039539,0.00037339,-0.0
 0103119,-0.00082249,-0.00001520,-0.00010724,0.00169930,-0.00012660,-0.
 00012683,-0.00011258,0.00032567,0.00023460,-0.00094838,-0.00129441,0.0
 0060853,-0.00043132,-0.00071818,-0.06993093,0.08178431,0.00097838,-0.0
 0003869,0.00235401,-0.00010019,-0.00029893,-0.00004814,0.00006646,-0.0
 0013931,0.00003892,-0.00000483,-0.00000649,-0.00003887,0.00000228,-0.0
 0000636,0.00000966,-0.13850994,0.08494584,-0.26902378,0.00009751,-0.00
 031479,-0.00011737,0.00000235,0.00014742,-0.00001700,-0.00005095,-0.00
 000540,0.00002005,-0.00000392,-0.00001456,0.00000046,-0.00000385,0.000
 00092,0.00000190,0.00003816,-0.00002503,0.00004267,-0.00001440,0.00010
 817,0.00017096,-0.00008816,0.00009267,-0.00007267,-0.00001328,-0.00002
 377,-0.00003499,0.00001376,-0.00010282,0.00000359,-0.00012287,-0.00005
 714,-0.00000172,-0.00000562,-0.00001461,0.00000081,-0.00003099,-0.0000
 0228,-0.00002132,0.00000148,0.00000213,-0.00000105,-0.00000116,-0.0000
 0523,0.00000023,0.00016012,-0.00008662,0.00007430,0.00000522,0.0000055
 6,-0.00015534,0.00045418,0.00056955,-0.00003643,-0.00020110,-0.0000768
 2,0.00020794,-0.00017210,0.00081901,0.00008248,-0.00010746,0.00000277,
 0.00010239,-0.00010626,-0.00078628,-0.00063474,0.00060396,-0.00024762,
 -0.00016525,0.15532434,-0.10217165,0.29230756,0.00120697,-0.00003232,-
 0.00077305,0.00007418,-0.00026306,0.00010888,0.00001887,-0.00002641,0.
 00006926,-0.00002262,0.00000322,-0.00002089,0.00001699,0.00000316,0.00
 000224,-0.12156020,0.04449721,0.11523341,-0.00013636,-0.00001177,0.000
 00452,0.00012324,-0.00032143,-0.00026728,0.00001364,0.00000399,-0.0000
 4438,0.00000242,-0.00000748,-0.00000180,-0.00000228,-0.00000087,-0.000
 00053,0.00000688,0.00003629,-0.00007859,0.00018195,-0.00008712,0.00011
 615,-0.00025525,0.00030176,-0.00000147,-0.00022357,0.00007611,0.000010
 62,0.00006807,0.00056845,-0.00046738,0.00016464,-0.00022229,0.00069739
 ,0.00001711,-0.00002500,-0.00001383,0.00000454,-0.00002160,-0.00001665
 ,-0.00000841,0.00000504,-0.00000347,0.00000261,-0.00000189,0.00000128,
 0.00003940,0.00043654,-0.00009859,0.00003207,0.00000402,0.00017318,-0.
 00077377,-0.00068047,-0.00012238,0.00002968,-0.00006493,-0.00009012,0.
 00005582,-0.00028954,-0.00003851,0.00002721,0.00000653,-0.00002111,0.0
 0005013,0.00016830,0.00008231,-0.00013001,-0.00002991,-0.00003236,0.01
 033774,-0.00700404,-0.02288642,0.12709552,0.00603311,-0.00776597,-0.01
 296530,-0.00120634,-0.00078201,0.00246093,0.00008038,0.00019322,0.0000
 8620,0.00015075,-0.00001124,-0.00012415,-0.00001062,0.00000549,0.00001
 816,0.06435722,-0.08200005,-0.13418159,-0.00012169,-0.00008768,0.00003
 389,0.00024319,0.00272114,0.00006425,-0.00007663,0.00001541,0.00000159
 ,0.00000311,-0.00000264,-0.00000571,-0.00002208,-0.00000005,0.00001709
 ,-0.00003754,-0.00003284,0.00000929,-0.00012580,0.00000337,-0.00002227
 ,0.00034582,-0.00013002,-0.00002404,-0.00011772,-0.00008379,-0.0004890
 5,0.00019976,-0.00059631,0.00088163,-0.00089756,-0.00108821,0.00199011
 ,0.00024391,-0.00006280,-0.00002019,-0.00014393,-0.00034563,-0.0001628
 7,0.00000823,-0.00001579,0.00008213,0.00000675,-0.00003690,-0.00000494
 ,0.00006615,0.00054392,0.00011206,0.00005555,-0.00003604,0.00006652,-0
 .00102619,-0.00039864,-0.00037201,0.00000296,0.00005394,0.00000356,-0.
 00007483,-0.00063614,0.00034657,0.00000445,0.00003054,-0.00002894,-0.0
 0000171,0.00004759,0.00007740,-0.00008209,0.00010759,0.00027527,-0.004
 61030,0.00390531,0.01613179,-0.05331181,0.08238162,-0.00077232,0.00004
 303,0.00250021,0.00017818,0.00036533,-0.00008741,-0.00005221,0.0000044
 1,-0.00001728,-0.00003153,0.00002314,0.00000723,0.00000684,0.00002455,
 0.00004125,0.11541035,-0.09287112,-0.30779537,-0.00004530,0.00001608,-
 0.00004043,-0.00043109,-0.00085560,0.00034021,0.00001207,-0.00000295,-
 0.00000539,0.00000284,0.00000491,-0.00000012,0.00000427,-0.00000177,-0
 .00000477,0.00000247,0.00004496,-0.00002750,0.00011089,-0.00008986,0.0
 0000611,-0.00019706,0.00009759,0.00007932,0.00011525,-0.00011599,0.000
 15932,-0.00044279,0.00044932,-0.00031807,0.00083330,0.00043932,-0.0002
 2617,-0.00004833,-0.00004102,-0.00002253,0.00004244,0.00015871,0.00008
 555,-0.00004102,0.00000040,-0.00001370,-0.00000104,0.00001390,-0.00000
 267,-0.00011143,0.00014339,-0.00020647,0.00001548,0.00000325,0.0000902
 9,-0.00012604,-0.00036899,0.00030141,-0.00001328,-0.00014133,-0.000062
 94,-0.00000815,0.00008901,-0.00002700,0.00001593,0.00004240,0.00000479
 ,0.00002327,0.00005666,0.00000743,-0.00001388,0.00003472,-0.00006682,0
 .01700549,-0.01531857,-0.02831262,-0.12993972,0.11204405,0.33564703,0.
 00297547,0.00014881,-0.00026895,-0.00015669,0.00044357,0.00009217,-0.0
 0002534,0.00000729,-0.00006330,0.00001702,0.00002134,-0.00001663,0.000
 03549,0.00001972,0.00001073,-0.36058782,-0.10353413,0.02180777,0.00064
 440,-0.00055312,-0.00040361,-0.00005288,-0.00000240,0.00000034,0.00000
 864,-0.00000333,0.00000857,-0.00000022,0.00000698,0.00000172,-0.000005
 23,-0.00000131,0.00000335,0.00007447,-0.00014918,0.00022471,-0.0006119
 4,0.00040934,0.00061096,-0.00006474,0.00029173,-0.00040469,0.00000259,
 0.00003069,0.00000005,0.00011408,-0.00001858,-0.00007081,-0.00003826,-
 0.00005747,0.00002892,-0.00000293,-0.00002791,-0.00005480,0.00007445,0
 .00016640,0.00006040,-0.00000099,0.00000274,-0.00003609,-0.00000238,0.
 00001415,-0.00000255,0.00001184,0.00020854,-0.00005570,0.00001365,0.00
 003887,0.00000673,-0.00004321,0.00005707,0.00001398,-0.00002769,-0.000
 01151,-0.00000095,-0.00008487,-0.00001428,-0.00009522,0.00001326,-0.00
 000352,0.00000763,-0.00002598,-0.00010468,-0.00003155,0.00021705,-0.00
 012551,-0.00005435,-0.02123609,-0.01180431,0.00467530,-0.01645723,-0.0
 0993451,-0.00150389,0.39522207,-0.01429341,-0.00761778,0.00107608,0.00
 272542,-0.00080512,-0.00023531,0.00006025,0.00025141,0.00009595,-0.000
 14056,-0.00001163,0.00011581,0.00001685,0.00000639,-0.00000838,-0.1488
 0427,-0.08177760,0.01157948,-0.00026077,0.00241179,0.00048830,0.000067
 11,-0.00003487,-0.00008737,0.00001859,0.00001968,-0.00006998,-0.000005
 96,0.00000022,0.00000114,0.00002087,-0.00000032,-0.00001587,-0.0004175
 7,-0.00003775,-0.00029763,0.00212832,-0.00128318,-0.00045876,0.0006730
 7,-0.00064201,0.00036864,0.00002449,-0.00003324,-0.00002933,-0.0001430
 7,-0.00011595,0.00035341,0.00001836,0.00000934,-0.00010613,-0.00006403
 ,-0.00005997,0.00023842,-0.00013129,-0.00041292,-0.00019085,0.00007364
 ,-0.00002380,0.00003309,-0.00000660,-0.00004066,0.00000489,0.00034564,
 -0.00065221,0.00004573,-0.00002918,0.00002284,-0.00001446,0.00031620,0
 .00011225,0.00000031,0.00006323,0.00003530,0.00001159,0.00005710,0.000
 50644,0.00009516,0.00004226,-0.00005894,0.00007131,-0.00000419,0.00002
 351,-0.00001156,0.00017723,-0.00041723,-0.00111830,0.01670243,0.003961
 22,0.00159856,0.01629131,0.00410358,-0.00429192,0.12447853,0.08256121,
 -0.00035841,-0.00006989,0.00112728,0.00002258,-0.00012900,0.00014939,0
 .00005135,-0.00001185,0.00001354,-0.00000738,0.00000263,-0.00003147,0.
 00000779,0.00001379,0.00001732,0.02160572,0.00803609,-0.06775193,-0.00
 007239,-0.00057626,-0.00017713,0.00003035,-0.00006194,-0.00014061,-0.0
 0004166,0.00000401,0.00000382,-0.00000267,-0.00000481,0.00000284,-0.00
 000254,-0.00000174,-0.00000061,0.00010948,0.00004184,-0.00013008,0.000
 10750,-0.00009950,0.00051865,-0.00043413,0.00071445,-0.00020575,-0.000
 09169,0.00004772,-0.00001492,0.00011748,0.00033932,-0.00031031,0.00004
 613,-0.00008985,0.00020967,-0.00001320,-0.00003521,-0.00000677,0.00001
 517,0.00002959,0.00001684,-0.00000952,0.00000496,-0.00001775,-0.000000
 90,0.00000293,0.00000257,-0.00006572,-0.00018815,0.00005358,-0.0000190
 4,0.00001915,0.00002195,-0.00003686,-0.00004764,-0.00015482,0.00004938
 ,0.00015952,0.00005570,-0.00009613,0.00047476,-0.00008196,0.00015587,-
 0.00002168,0.00007700,-0.00013476,-0.00011765,-0.00000670,0.00025218,-
 0.00075173,-0.00074655,-0.03511301,-0.01214046,0.00326333,0.03841927,0
 .01369858,-0.00203288,-0.02449022,-0.00924199,0.06627675\\0.00000221,-
 0.00000431,-0.00000010,-0.00000463,0.00000322,-0.00000056,-0.00000586,
 0.00000076,0.00000549,-0.00000808,-0.00000012,0.00000519,-0.00000426,-
 0.00000043,-0.00000106,0.00000262,0.00000592,-0.00000309,0.00000035,-0
 .00000589,-0.00001183,0.00001642,-0.00000003,0.00000812,-0.00001109,0.
 00000151,0.00000660,-0.00001380,0.00000134,0.00000767,-0.00000410,-0.0
 0000008,0.00000013,0.00000274,-0.00000125,-0.00001447,-0.00000071,0.00
 000059,-0.00001876,0.00000768,-0.00000200,-0.00001539,0.00001474,0.000
 00199,0.00000036,0.00001449,-0.00000158,-0.00000320,0.00001563,0.00000
 022,0.00000570,0.00000284,0.00000057,-0.00000414,0.00000544,-0.0000018
 1,-0.00000362,0.00000955,-0.00000091,-0.00000804,0.00000746,-0.0000012
 9,-0.00000755,-0.00000414,0.00000096,0.00001408,0.00000114,0.00000234,
 0.00001491,0.00000331,0.00000264,0.00001506,-0.00000632,0.00000180,0.0
 0001650,-0.00001332,-0.00000030,-0.00000647,-0.00001425,0.00000129,-0.
 00000223,-0.00001399,0.00000018,0.00000665,-0.00001292,-0.00000205,-0.
 00000779,-0.00000005,-0.00000021,0.00000498,0.00000974,-0.00000155,0.0
 0000229,0.00000118,-0.00000150,-0.00000545\\\@


 ... FOR AFTERWARDS A MAN FINDS PLEASURE IN HIS PAINS,
 WHEN HE HAS SUFFERED LONG AND WANDERED FAR.

                                    -- HOMER
 Job cpu time:       0 days  0 hours 12 minutes 10.6 seconds.
 File lengths (MBytes):  RWF=    122 Int=      0 D2E=      0 Chk=      5 Scr=      1
 Normal termination of Gaussian 09 at Mon Oct 16 10:24:17 2017.
