Ground state of LiH_mini with gen                                       
SP        RHF                                                         Gen                 
Number of atoms                            I                2
Info1-9                                    I   N=           9
          38          37           0           0           0         110
           1           1           2
Charge                                     I                0
Multiplicity                               I                1
Number of electrons                        I                4
Number of alpha electrons                  I                2
Number of beta electrons                   I                2
Number of basis functions                  I                6
Number of independent functions            I                6
Number of point charges in /Mol/           I                0
Number of translation vectors              I                0
Atomic numbers                             I   N=           2
           3           1
Nuclear charges                            R   N=           2
  3.00000000E+00  1.00000000E+00
Current cartesian coordinates              R   N=           6
  0.00000000E+00  0.00000000E+00  9.05508008E-02  0.00000000E+00  0.00000000E+00
 -2.75646305E+00
Force Field                                I                0
Int Atom Types                             I   N=           2
           0           0
MM charges                                 R   N=           2
  0.00000000E+00  0.00000000E+00
Integer atomic weights                     I   N=           2
           7           1
Real atomic weights                        R   N=           2
  7.01600450E+00  1.00782504E+00
Atom fragment info                         I   N=           2
           0           0
Atom residue num                           I   N=           2
           0           0
Nuclear spins                              I   N=           2
           3           1
Nuclear ZEff                               R   N=           2
 -1.35000000E+00 -1.00000000E+00
Nuclear ZNuc                               R   N=           2
  3.00000000E+00  1.00000000E+00
Nuclear QMom                               R   N=           2
 -4.01000000E+00  0.00000000E+00
Nuclear GFac                               R   N=           2
  3.25642400E+00  2.79284600E+00
MicOpt                                     I   N=           2
          -1          -1
Number of contracted shells                I                3
Number of primitive shells                 I               18
Pure/Cartesian d shells                    I                0
Pure/Cartesian f shells                    I                0
Highest angular momentum                   I                1
Largest degree of contraction              I                6
Shell types                                I   N=           3
           0          -1           0
Number of primitives per shell             I   N=           3
           6           6           6
Shell to atom map                          I   N=           3
           1           1           2
Primitive exponents                        R   N=          18
  1.67175846E+02  3.06515084E+01  8.57518748E+00  2.94580834E+00  1.14394358E+00
  4.71139139E-01  6.59756398E+00  1.30583009E+00  4.05851019E-01  1.56145516E-01
  6.78141039E-02  3.10841655E-02  3.55232212E+01  6.51314372E+00  1.82214290E+00
  6.25955266E-01  2.43076747E-01  1.00112428E-01
Contraction coefficients                   R   N=          18
  9.16359628E-03  4.93614929E-02  1.68538305E-01  3.70562800E-01  4.16491530E-01
  1.30334084E-01 -1.32527881E-02 -4.69917101E-02 -3.37853715E-02  2.50241786E-01
  5.95117253E-01  2.40706176E-01  9.16359628E-03  4.93614929E-02  1.68538305E-01
  3.70562800E-01  4.16491530E-01  1.30334084E-01
P(S=P) Contraction coefficients            R   N=          18
  0.00000000E+00  0.00000000E+00  0.00000000E+00  0.00000000E+00  0.00000000E+00
  0.00000000E+00  3.75969660E-03  3.76793698E-02  1.73896744E-01  4.18036435E-01
  4.25859548E-01  1.01708296E-01  0.00000000E+00  0.00000000E+00  0.00000000E+00
  0.00000000E+00  0.00000000E+00  0.00000000E+00
Coordinates of each shell                  R   N=           9
  0.00000000E+00  0.00000000E+00  9.05508008E-02  0.00000000E+00  0.00000000E+00
  9.05508008E-02  0.00000000E+00  0.00000000E+00 -2.75646305E+00
Constraint Structure                       R   N=           6
  0.00000000E+00  0.00000000E+00  9.05508008E-02  0.00000000E+00  0.00000000E+00
 -2.75646305E+00
Num ILSW                                   I              100
ILSW                                       I   N=         100
           0           0           0           0           2           0
           0           0           0           0           0          -1
           0           0           0           0           0           0
           0           0           0           0           0           0
           1           1           0           0           0           0
           0           0      100000           0          -1           0
           0           0           0           0           0           0
           0           0           0           1           0           0
           0           0           1           0           0           0
           0           0           4          41           0           0
           0           0           0           0           0           0
           0           0           0           2           0           0
           0           0           0           0           0           0
           0           0           0           0           0           0
           0           0           0           0           0           0
           0           0           0           0           0           0
           0           0           0           0
Num RLSW                                   I               41
RLSW                                       R   N=          41
  1.00000000E+00  1.00000000E+00  1.00000000E+00  1.00000000E+00  1.00000000E+00
  0.00000000E+00  0.00000000E+00  1.00000000E+00  0.00000000E+00  0.00000000E+00
  0.00000000E+00  0.00000000E+00  1.00000000E+00  0.00000000E+00  0.00000000E+00
  0.00000000E+00  0.00000000E+00  1.00000000E+00  0.00000000E+00  0.00000000E+00
  0.00000000E+00  0.00000000E+00  1.00000000E+00  0.00000000E+00  0.00000000E+00
  0.00000000E+00  0.00000000E+00  1.00000000E+00  0.00000000E+00  0.00000000E+00
  0.00000000E+00  0.00000000E+00  1.00000000E+00  0.00000000E+00  0.00000000E+00
  0.00000000E+00  0.00000000E+00  0.00000000E+00  1.00000000E+00  1.00000000E+00
  0.00000000E+00
MxBond                                     I                1
NBond                                      I   N=           2
           1           1
IBond                                      I   N=           2
           2           1
RBond                                      R   N=           2
  2.00000000E+00  2.00000000E+00
Virial Ratio                               R      1.980975956454702E+00
SCF Energy                                 R     -7.953470689227002E+00
Total Energy                               R     -7.953470689227002E+00
RMS Density                                R      1.076802779677089E-10
External E-field                           R   N=          35
  0.00000000E+00  0.00000000E+00  0.00000000E+00  0.00000000E+00  0.00000000E+00
  0.00000000E+00  0.00000000E+00  0.00000000E+00  0.00000000E+00  0.00000000E+00
  0.00000000E+00  0.00000000E+00  0.00000000E+00  0.00000000E+00  0.00000000E+00
  0.00000000E+00  0.00000000E+00  0.00000000E+00  0.00000000E+00  0.00000000E+00
  0.00000000E+00  0.00000000E+00  0.00000000E+00  0.00000000E+00  0.00000000E+00
  0.00000000E+00  0.00000000E+00  0.00000000E+00  0.00000000E+00  0.00000000E+00
  0.00000000E+00  0.00000000E+00  0.00000000E+00  0.00000000E+00  0.00000000E+00
IOpCl                                      I                0
IROHF                                      I                0
Alpha Orbital Energies                     R   N=           6
 -2.38521351E+00 -2.93644946E-01  7.94068543E-02  1.62593698E-01  1.62593698E-01
  5.72496518E-01
Alpha MO coefficients                      R   N=          36
  9.93727521E-01  2.32800066E-02  5.22645554E-17  5.77724959E-16  6.37252874E-03
  5.51048300E-03 -1.64879607E-01  4.37804791E-01 -2.45743110E-16 -1.74615939E-16
 -3.48794233E-01  5.50639946E-01 -1.97984676E-01  7.98838200E-01  1.00992118E-15
  6.44907857E-16  6.16680987E-01 -1.24353389E-01  1.76432582E-16 -2.97861033E-16
 -4.05854082E-01  9.13937889E-01 -4.96508114E-16 -1.77977292E-16  2.36662672E-16
 -1.14145819E-15  9.13937889E-01  4.05854082E-01  1.39031644E-17  2.32832796E-16
  7.39714855E-02 -7.48016019E-01 -1.28741011E-15  1.58178191E-16  1.00467858E+00
  1.23212215E+00
Total SCF Density                          R   N=          21
  2.02935934E+00 -9.81021970E-02  3.84429988E-01  1.84909509E-16 -2.12741584E-16
  1.26242520E-31  1.20578360E-15 -1.25996508E-16  1.46210404E-31  7.28513709E-31
  1.27683226E-01 -3.05110868E-01  1.72093674E-16  1.29173203E-16  2.43396052E-01
 -1.70626758E-01  4.82402181E-01 -2.70055939E-16 -1.85933936E-16 -3.84049844E-01
  6.06469430E-01
Mulliken Charges                           R   N=           2
 -2.23114742E-03  2.23114742E-03
ONIOM Charges                              I   N=          16
           0           0           0           0           0           0
           0           0           0           0           0           0
           0           0           0           0
ONIOM Multiplicities                       I   N=          16
           1           0           0           0           0           0
           0           0           0           0           0           0
           0           0           0           0
Atom Layers                                I   N=           2
           1           1
Atom Modifiers                             I   N=           2
           0           0
Force Field                                I                0
Int Atom Modified Types                    I   N=           2
           0           0
Link Atoms                                 I   N=           2
           0           0
Atom Modified MM Charges                   R   N=           2
  0.00000000E+00  0.00000000E+00
Link Distances                             R   N=           8
  0.00000000E+00  0.00000000E+00  0.00000000E+00  0.00000000E+00  0.00000000E+00
  0.00000000E+00  0.00000000E+00  0.00000000E+00
Cartesian Gradient                         R   N=           6
  0.00000000E+00  0.00000000E+00  0.00000000E+00  0.00000000E+00  0.00000000E+00
  0.00000000E+00
Dipole Moment                              R   N=           3
  9.05803050E-16  2.14069147E-16  1.92305093E+00
Quadrupole Moment                          R   N=           6
  7.96579682E-01  7.96579682E-01 -1.59315936E+00 -6.85370892E-31 -1.07385411E-15
 -8.26531205E-16
QEq coupling tensors                       R   N=          12
 -2.53858899E-02  0.00000000E+00 -2.53858899E-02  0.00000000E+00  0.00000000E+00
  5.07717799E-02  2.94658908E-02  0.00000000E+00  2.94658908E-02  0.00000000E+00
  1.66758271E-17 -5.89317817E-02
