Cl-                                                                     
SP        RM06                                                        6-31+G(d)           
Number of atoms                            I                1
Info1-9                                    I   N=           9
           9           9           0           0           0         110
           1          18        -402
Full Title                                 C   N=           1
Cl-         
Route                                      C   N=           2
#p M06/6-31+G(d)        
Charge                                     I               -1
Multiplicity                               I                1
Number of electrons                        I               18
Number of alpha electrons                  I                9
Number of beta electrons                   I                9
Number of basis functions                  I               23
Number of independent functions            I               23
Number of point charges in /Mol/           I                0
Number of translation vectors              I                0
Atomic numbers                             I   N=           1
          17
Nuclear charges                            R   N=           1
  1.70000000E+01
Current cartesian coordinates              R   N=           3
  0.00000000E+00  0.00000000E+00  0.00000000E+00
Number of symbols in /Mol/                 I                0
Force Field                                I                0
Atom Types                                 C   N=           1
            
Int Atom Types                             I   N=           1
           0
MM charges                                 R   N=           1
  0.00000000E+00
Integer atomic weights                     I   N=           1
          35
Real atomic weights                        R   N=           1
  3.49688527E+01
Atom fragment info                         I   N=           1
           0
Atom residue num                           I   N=           1
           0
Nuclear spins                              I   N=           1
           3
Nuclear ZEff                               R   N=           1
 -1.42400000E+01
Nuclear ZNuc                               R   N=           1
  1.70000000E+01
Nuclear QMom                               R   N=           1
 -8.16500000E+00
Nuclear GFac                               R   N=           1
  8.21874000E-01
MicOpt                                     I   N=           1
          -1
Number of residues                         I                0
Number of secondary structures             I                0
Number of contracted shells                I                6
Number of primitive shells                 I               18
Pure/Cartesian d shells                    I                1
Pure/Cartesian f shells                    I                0
Highest angular momentum                   I                2
Largest degree of contraction              I                6
Shell types                                I   N=           6
           0          -1          -1          -1          -1           2
Number of primitives per shell             I   N=           6
           6           6           3           1           1           1
Shell to atom map                          I   N=           6
           1           1           1           1           1           1
Primitive exponents                        R   N=          18
  2.51801000E+04  3.78035000E+03  8.60474000E+02  2.42145000E+02  7.73349000E+01
  2.62470000E+01  4.91765000E+02  1.16984000E+02  3.74153000E+01  1.37834000E+01
  5.45215000E+00  2.22588000E+00  3.18649000E+00  1.14427000E+00  4.20377000E-01
  1.42657000E-01  4.83000000E-02  7.50000000E-01
Contraction coefficients                   R   N=          18
  1.83295985E-03  1.40341988E-02  6.90973943E-02  2.37451980E-01  4.83033960E-01
  3.39855972E-01 -2.29739142E-03 -3.07137189E-02 -1.12528069E-01  4.50163278E-02
  5.89353363E-01  4.65206287E-01 -2.51828028E-01  6.15892514E-02  1.06018433E+00
  1.00000000E+00  1.00000000E+00  1.00000000E+00
P(S=P) Contraction coefficients            R   N=          18
  0.00000000E+00  0.00000000E+00  0.00000000E+00  0.00000000E+00  0.00000000E+00
  0.00000000E+00  3.98940088E-03  3.03177067E-02  1.29880029E-01  3.27951072E-01
  4.53527100E-01  2.52154056E-01 -1.42993147E-02  3.23572333E-01  7.43507765E-01
  1.00000000E+00  1.00000000E+00  0.00000000E+00
Coordinates of each shell                  R   N=          18
  0.00000000E+00  0.00000000E+00  0.00000000E+00  0.00000000E+00  0.00000000E+00
  0.00000000E+00  0.00000000E+00  0.00000000E+00  0.00000000E+00  0.00000000E+00
  0.00000000E+00  0.00000000E+00  0.00000000E+00  0.00000000E+00  0.00000000E+00
  0.00000000E+00  0.00000000E+00  0.00000000E+00
Constraint Structure                       R   N=           3
  0.00000000E+00  0.00000000E+00  0.00000000E+00
Num ILSW                                   I              100
ILSW                                       I   N=         100
           0           1           0           0           2           0
           0           0           0           0        4235          -1
           0           0           0           0           0           0
           0           0           0           0           0           0
           1           0           0           0           0           0
           0           0      100000           0          -1           0
           0           0           0           0           0           0
           0           0           0           1           0           0
           0           0           1           0           0           0
           0           0           4          41           0           0
           0           0          54           0           0           0
           0           0           0           1           0           0
           0           0           0           0           0           0
           0           0           0           0           0           0
           0           0           0           0           0           0
           0           0           0           0           0           0
           0           0           0           0
Num RLSW                                   I               41
RLSW                                       R   N=          41
  1.00000000E+00  1.00000000E+00  1.00000000E+00  1.00000000E+00  2.70000000E-01
  0.00000000E+00  0.00000000E+00  1.00000000E+00  0.00000000E+00  0.00000000E+00
  0.00000000E+00  0.00000000E+00  1.00000000E+00  0.00000000E+00  0.00000000E+00
  0.00000000E+00  0.00000000E+00  1.00000000E+00  0.00000000E+00  0.00000000E+00
  0.00000000E+00  0.00000000E+00  1.00000000E+00  0.00000000E+00  0.00000000E+00
  0.00000000E+00  0.00000000E+00  1.00000000E+00  0.00000000E+00  0.00000000E+00
  0.00000000E+00  0.00000000E+00  1.00000000E+00  0.00000000E+00  0.00000000E+00
  0.00000000E+00  0.00000000E+00  0.00000000E+00  1.00000000E+00  1.00000000E+00
  0.00000000E+00
MxBond                                     I                1
NBond                                      I   N=           1
           0
IBond                                      I   N=           1
           0
RBond                                      R   N=           1
  0.00000000E+00
Virial Ratio                               R      2.003104228872776E+00
SCF Energy                                 R     -4.602362528437518E+02
Total Energy                               R     -4.602362528437518E+02
RMS Density                                R      2.607074568752138E-09
External E-field                           R   N=          35
  0.00000000E+00  0.00000000E+00  0.00000000E+00  0.00000000E+00  0.00000000E+00
  0.00000000E+00  0.00000000E+00  0.00000000E+00  0.00000000E+00  0.00000000E+00
  0.00000000E+00  0.00000000E+00  0.00000000E+00  0.00000000E+00  0.00000000E+00
  0.00000000E+00  0.00000000E+00  0.00000000E+00  0.00000000E+00  0.00000000E+00
  0.00000000E+00  0.00000000E+00  0.00000000E+00  0.00000000E+00  0.00000000E+00
  0.00000000E+00  0.00000000E+00  0.00000000E+00  0.00000000E+00  0.00000000E+00
  0.00000000E+00  0.00000000E+00  0.00000000E+00  0.00000000E+00  0.00000000E+00
IOpCl                                      I                0
IROHF                                      I                0
Alpha Orbital Energies                     R   N=          23
 -1.01409767E+02 -9.26812563E+00 -6.97436796E+00 -6.97436796E+00 -6.97436796E+00
 -5.00530401E-01 -3.44602097E-02 -3.44602097E-02 -3.44602097E-02  2.31976588E-01
  2.54170983E-01  2.54170983E-01  2.54170983E-01  8.48782738E-01  8.53635796E-01
  8.53635796E-01  8.53635796E-01  1.19512162E+00  1.19512162E+00  1.19512162E+00
  1.19512162E+00  1.19512162E+00  4.53064139E+00
Alpha MO coefficients                      R   N=         529
  9.95986527E-01  1.51758101E-02  0.00000000E+00  0.00000000E+00  0.00000000E+00
 -2.07735250E-02  0.00000000E+00  0.00000000E+00  0.00000000E+00  1.92841673E-03
  0.00000000E+00  0.00000000E+00  0.00000000E+00 -2.92178900E-04  0.00000000E+00
  0.00000000E+00  0.00000000E+00  7.39396977E-03  7.39396977E-03  7.39396977E-03
  0.00000000E+00  0.00000000E+00  0.00000000E+00 -2.85024746E-01  1.02369937E+00
  0.00000000E+00  0.00000000E+00  0.00000000E+00  6.79820555E-02  0.00000000E+00
  0.00000000E+00  0.00000000E+00 -1.67047390E-02  0.00000000E+00  0.00000000E+00
  0.00000000E+00  4.69067168E-03  0.00000000E+00  0.00000000E+00  0.00000000E+00
 -1.39260539E-02 -1.39260539E-02 -1.39260539E-02  0.00000000E+00  0.00000000E+00
  0.00000000E+00  0.00000000E+00  0.00000000E+00  0.00000000E+00  0.00000000E+00
  9.90797463E-01  0.00000000E+00  0.00000000E+00  0.00000000E+00  2.97148278E-02
  0.00000000E+00  0.00000000E+00  0.00000000E+00 -1.13380620E-02  0.00000000E+00
  0.00000000E+00  0.00000000E+00  4.07266901E-03  0.00000000E+00  0.00000000E+00
  0.00000000E+00  0.00000000E+00  0.00000000E+00  0.00000000E+00  0.00000000E+00
  0.00000000E+00  0.00000000E+00  9.90797463E-01  0.00000000E+00  0.00000000E+00
  0.00000000E+00  2.97148278E-02  0.00000000E+00  0.00000000E+00  0.00000000E+00
 -1.13380620E-02  0.00000000E+00  0.00000000E+00  0.00000000E+00  4.07266901E-03
  0.00000000E+00  0.00000000E+00  0.00000000E+00  0.00000000E+00  0.00000000E+00
  0.00000000E+00  0.00000000E+00  0.00000000E+00  0.00000000E+00  9.90797463E-01
  0.00000000E+00  0.00000000E+00  0.00000000E+00  2.97148278E-02  0.00000000E+00
  0.00000000E+00  0.00000000E+00 -1.13380620E-02  0.00000000E+00  0.00000000E+00
  0.00000000E+00  4.07266901E-03  0.00000000E+00  0.00000000E+00  0.00000000E+00
  0.00000000E+00  0.00000000E+00  0.00000000E+00  0.00000000E+00  0.00000000E+00
  8.44804286E-02 -3.84584746E-01  0.00000000E+00  0.00000000E+00  0.00000000E+00
  7.55471642E-01  0.00000000E+00  0.00000000E+00  0.00000000E+00  3.49486718E-01
  0.00000000E+00  0.00000000E+00  0.00000000E+00  1.28844564E-02  0.00000000E+00
  0.00000000E+00  0.00000000E+00 -5.23247147E-03 -5.23247147E-03 -5.23247147E-03
  0.00000000E+00  0.00000000E+00  0.00000000E+00  0.00000000E+00  0.00000000E+00
 -2.69055747E-01  0.00000000E+00  0.00000000E+00  0.00000000E+00  6.79931983E-01
  0.00000000E+00  0.00000000E+00  0.00000000E+00  3.77857913E-01  0.00000000E+00
  0.00000000E+00  0.00000000E+00  1.36374634E-01  0.00000000E+00  0.00000000E+00
  0.00000000E+00  0.00000000E+00  0.00000000E+00  0.00000000E+00  0.00000000E+00
  0.00000000E+00  0.00000000E+00  0.00000000E+00  0.00000000E+00 -2.69055747E-01
  0.00000000E+00  0.00000000E+00  0.00000000E+00  6.79931983E-01  0.00000000E+00
  0.00000000E+00  0.00000000E+00  3.77857913E-01  0.00000000E+00  0.00000000E+00
  0.00000000E+00  1.36374634E-01  0.00000000E+00  0.00000000E+00  0.00000000E+00
  0.00000000E+00  0.00000000E+00  0.00000000E+00  0.00000000E+00  0.00000000E+00
  0.00000000E+00  0.00000000E+00  0.00000000E+00 -2.69055747E-01  0.00000000E+00
  0.00000000E+00  0.00000000E+00  6.79931983E-01  0.00000000E+00  0.00000000E+00
  0.00000000E+00  3.77857913E-01  0.00000000E+00  0.00000000E+00  0.00000000E+00
  1.36374634E-01  0.00000000E+00  0.00000000E+00  0.00000000E+00  0.00000000E+00
  0.00000000E+00  0.00000000E+00 -2.02715046E-02  1.21165825E-01  0.00000000E+00
  0.00000000E+00  0.00000000E+00 -1.43461609E-01  0.00000000E+00  0.00000000E+00
  0.00000000E+00 -1.06118997E+00  0.00000000E+00  0.00000000E+00  0.00000000E+00
  1.63969072E+00  0.00000000E+00  0.00000000E+00  0.00000000E+00  2.76160333E-02
  2.76160333E-02  2.76160333E-02  0.00000000E+00  0.00000000E+00  0.00000000E+00
  0.00000000E+00  0.00000000E+00  0.00000000E+00  0.00000000E+00  8.89932128E-02
  0.00000000E+00  0.00000000E+00  0.00000000E+00 -1.92478805E-01  0.00000000E+00
  0.00000000E+00  0.00000000E+00 -6.49816553E-01  0.00000000E+00  0.00000000E+00
  0.00000000E+00  1.30934899E+00  0.00000000E+00  0.00000000E+00  0.00000000E+00
  0.00000000E+00  0.00000000E+00  0.00000000E+00  0.00000000E+00  0.00000000E+00
  8.89932128E-02  0.00000000E+00  0.00000000E+00  0.00000000E+00 -1.92478805E-01
  0.00000000E+00  0.00000000E+00  0.00000000E+00 -6.49816553E-01  0.00000000E+00
  0.00000000E+00  0.00000000E+00  1.30934899E+00  0.00000000E+00  0.00000000E+00
  0.00000000E+00  0.00000000E+00  0.00000000E+00  0.00000000E+00  0.00000000E+00
  0.00000000E+00  0.00000000E+00  0.00000000E+00  0.00000000E+00  8.89932128E-02
  0.00000000E+00  0.00000000E+00  0.00000000E+00 -1.92478805E-01  0.00000000E+00
  0.00000000E+00  0.00000000E+00 -6.49816553E-01  0.00000000E+00  0.00000000E+00
  0.00000000E+00  1.30934899E+00  0.00000000E+00  0.00000000E+00  0.00000000E+00
  0.00000000E+00  0.00000000E+00  0.00000000E+00  0.00000000E+00 -7.97556694E-02
  5.79813923E-02  0.00000000E+00  0.00000000E+00  0.00000000E+00 -1.73159205E+00
  0.00000000E+00  0.00000000E+00  0.00000000E+00  2.99598266E+00  0.00000000E+00
  0.00000000E+00  0.00000000E+00 -1.24534360E+00  0.00000000E+00  0.00000000E+00
  0.00000000E+00 -1.37999595E-01 -1.37999595E-01 -1.37999595E-01  0.00000000E+00
  0.00000000E+00  0.00000000E+00  0.00000000E+00  0.00000000E+00  0.00000000E+00
  0.00000000E+00  3.22289031E-01  0.00000000E+00  0.00000000E+00  0.00000000E+00
 -1.28975311E+00  0.00000000E+00  0.00000000E+00  0.00000000E+00  1.74822391E+00
  0.00000000E+00  0.00000000E+00  0.00000000E+00 -7.44039774E-01  0.00000000E+00
  0.00000000E+00  0.00000000E+00  0.00000000E+00  0.00000000E+00  0.00000000E+00
  0.00000000E+00  0.00000000E+00  3.22289031E-01  0.00000000E+00  0.00000000E+00
  0.00000000E+00 -1.28975311E+00  0.00000000E+00  0.00000000E+00  0.00000000E+00
  1.74822391E+00  0.00000000E+00  0.00000000E+00  0.00000000E+00 -7.44039774E-01
  0.00000000E+00  0.00000000E+00  0.00000000E+00  0.00000000E+00  0.00000000E+00
  0.00000000E+00  0.00000000E+00  0.00000000E+00  0.00000000E+00  0.00000000E+00
  0.00000000E+00  3.22289031E-01  0.00000000E+00  0.00000000E+00  0.00000000E+00
 -1.28975311E+00  0.00000000E+00  0.00000000E+00  0.00000000E+00  1.74822391E+00
  0.00000000E+00  0.00000000E+00  0.00000000E+00 -7.44039774E-01  0.00000000E+00
  0.00000000E+00  0.00000000E+00  0.00000000E+00  0.00000000E+00  0.00000000E+00
  0.00000000E+00 -3.14206023E-17 -2.47349101E-15  0.00000000E+00  0.00000000E+00
  0.00000000E+00  1.14256046E-14  0.00000000E+00  0.00000000E+00  0.00000000E+00
  2.01127502E-14  0.00000000E+00  0.00000000E+00  0.00000000E+00 -6.92306269E-15
  0.00000000E+00  0.00000000E+00  0.00000000E+00  9.84915658E-01 -3.42605033E-01
 -6.42310625E-01  0.00000000E+00  0.00000000E+00  0.00000000E+00  0.00000000E+00
  0.00000000E+00  0.00000000E+00  0.00000000E+00  0.00000000E+00  0.00000000E+00
  0.00000000E+00  0.00000000E+00  0.00000000E+00  0.00000000E+00  0.00000000E+00
  0.00000000E+00  0.00000000E+00  0.00000000E+00  0.00000000E+00  0.00000000E+00
  0.00000000E+00  0.00000000E+00  0.00000000E+00  0.00000000E+00  0.00000000E+00
  1.00000000E+00  0.00000000E+00  0.00000000E+00  0.00000000E+00  0.00000000E+00
  0.00000000E+00  0.00000000E+00  0.00000000E+00  0.00000000E+00  0.00000000E+00
  0.00000000E+00  0.00000000E+00  0.00000000E+00  0.00000000E+00  0.00000000E+00
  0.00000000E+00  0.00000000E+00  0.00000000E+00  0.00000000E+00  0.00000000E+00
  0.00000000E+00  0.00000000E+00  0.00000000E+00  0.00000000E+00  1.00000000E+00
  0.00000000E+00  0.00000000E+00  0.00000000E+00  0.00000000E+00  0.00000000E+00
  0.00000000E+00  0.00000000E+00  0.00000000E+00  0.00000000E+00  0.00000000E+00
  0.00000000E+00  0.00000000E+00  0.00000000E+00  0.00000000E+00  0.00000000E+00
  0.00000000E+00  0.00000000E+00  0.00000000E+00  0.00000000E+00  0.00000000E+00
  1.00000000E+00  0.00000000E+00  0.00000000E+00  1.89049708E-15 -1.49276037E-15
  0.00000000E+00  0.00000000E+00  0.00000000E+00  3.72868385E-14  0.00000000E+00
  0.00000000E+00  0.00000000E+00 -6.47992074E-14  0.00000000E+00  0.00000000E+00
  0.00000000E+00  2.57180281E-14  0.00000000E+00  0.00000000E+00  0.00000000E+00
 -1.73035104E-01  9.39479532E-01 -7.66444428E-01  0.00000000E+00  0.00000000E+00
  0.00000000E+00  1.69713213E-01 -8.14718099E-01  0.00000000E+00  0.00000000E+00
  0.00000000E+00  5.45736786E+00  0.00000000E+00  0.00000000E+00  0.00000000E+00
  3.62208659E-01  0.00000000E+00  0.00000000E+00  0.00000000E+00 -2.22516098E-01
  0.00000000E+00  0.00000000E+00  0.00000000E+00 -2.46705304E+00 -2.46705304E+00
 -2.46705304E+00  0.00000000E+00  0.00000000E+00  0.00000000E+00
Total SCF Density                          R   N=         276
  2.16073042E+00 -6.18309268E-01  2.39219226E+00  0.00000000E+00  0.00000000E+00
  2.10814122E+00  0.00000000E+00  0.00000000E+00  5.34124571E-32  2.10814122E+00
  0.00000000E+00  0.00000000E+00  1.95160901E-32 -3.08148791E-32  2.10814122E+00
  4.75116981E-02 -4.42529875E-01  0.00000000E+00  0.00000000E+00  0.00000000E+00
  1.15158100E+00  0.00000000E+00  0.00000000E+00 -3.06996463E-01 -5.13581319E-33
 -2.82469725E-33  0.00000000E+00  9.26380944E-01  0.00000000E+00  0.00000000E+00
 -5.13581319E-33 -3.06996463E-01  2.54222753E-32  0.00000000E+00  4.10865055E-33
  9.26380944E-01  0.00000000E+00  0.00000000E+00 -3.85185989E-33  2.54222753E-32
 -3.06996463E-01  0.00000000E+00  2.56790659E-33 -4.77630626E-32  9.26380944E-01
  7.24134576E-02 -3.02957253E-01  0.00000000E+00  0.00000000E+00  0.00000000E+00
  5.25703245E-01  0.00000000E+00  0.00000000E+00  0.00000000E+00  2.44847467E-01
  0.00000000E+00  0.00000000E+00 -2.25797133E-01 -1.56642302E-32 -3.20988324E-33
  0.00000000E+00  5.13161543E-01  4.82766439E-32  1.02716264E-32  0.00000000E+00
  2.85810309E-01  0.00000000E+00  0.00000000E+00 -1.56642302E-32 -2.25797133E-01
 -9.62964972E-33  0.00000000E+00  4.82766439E-32  5.13161543E-01  2.36247407E-32
  0.00000000E+00  5.44396198E-32  2.85810309E-01  0.00000000E+00  0.00000000E+00
 -3.20988324E-33 -9.62964972E-33 -2.25797133E-01  0.00000000E+00  1.02716264E-32
  2.36247407E-32  5.13161543E-01  0.00000000E+00  1.19407657E-32  4.12149008E-32
  2.85810309E-01 -1.07895870E-03 -3.15523611E-04  0.00000000E+00  0.00000000E+00
  0.00000000E+00  2.01175850E-02  0.00000000E+00  0.00000000E+00  0.00000000E+00
  8.84805297E-03  0.00000000E+00  0.00000000E+00  0.00000000E+00  3.76193971E-04
  0.00000000E+00  0.00000000E+00 -6.53143780E-02 -2.88889492E-32 -9.62964972E-33
  0.00000000E+00  1.85692988E-01 -3.23556231E-32 -5.39260384E-33  0.00000000E+00
  1.02968117E-01 -6.93334780E-33 -8.34569643E-34  0.00000000E+00  3.72292550E-02
  0.00000000E+00  0.00000000E+00 -2.88889492E-32 -6.53143780E-02  1.60494162E-32
  0.00000000E+00 -3.26124137E-32  1.85692988E-01 -4.13432961E-32  0.00000000E+00
 -7.31853379E-33  1.02968117E-01 -1.28395330E-32  0.00000000E+00 -1.28716318E-32
  3.72292550E-02  0.00000000E+00  0.00000000E+00 -9.62964972E-33  1.60494162E-32
 -6.53143780E-02  0.00000000E+00 -5.13581319E-33 -4.12149008E-32  1.85692988E-01
  0.00000000E+00 -8.34569643E-34 -1.28395330E-32  1.02968117E-01  0.00000000E+00
 -2.31111593E-33 -1.46531170E-32  3.72292550E-02  2.17830456E-02 -2.42631088E-02
  0.00000000E+00  0.00000000E+00  0.00000000E+00 -1.01066088E-02  0.00000000E+00
  0.00000000E+00  0.00000000E+00 -3.16357906E-03  0.00000000E+00  0.00000000E+00
  0.00000000E+00 -2.69800918E-04  0.00000000E+00  0.00000000E+00  0.00000000E+00
  5.51969048E-04  2.17830456E-02 -2.42631088E-02  0.00000000E+00  0.00000000E+00
  0.00000000E+00 -1.01066088E-02  0.00000000E+00  0.00000000E+00  0.00000000E+00
 -3.16357906E-03  0.00000000E+00  0.00000000E+00  0.00000000E+00 -2.69800918E-04
  0.00000000E+00  0.00000000E+00  0.00000000E+00  5.51969048E-04  5.51969048E-04
  2.17830456E-02 -2.42631088E-02  0.00000000E+00  0.00000000E+00  0.00000000E+00
 -1.01066088E-02  0.00000000E+00  0.00000000E+00  0.00000000E+00 -3.16357906E-03
  0.00000000E+00  0.00000000E+00  0.00000000E+00 -2.69800918E-04  0.00000000E+00
  0.00000000E+00  0.00000000E+00  5.51969048E-04  5.51969048E-04  5.51969048E-04
  5.74500355E-33  3.68050873E-32  0.00000000E+00  0.00000000E+00  0.00000000E+00
 -6.05263923E-32  0.00000000E+00  0.00000000E+00  0.00000000E+00 -2.81134529E-32
  0.00000000E+00  0.00000000E+00  0.00000000E+00 -1.01348349E-33  0.00000000E+00
  0.00000000E+00  0.00000000E+00  3.92362894E-34  5.51335019E-34  3.99312495E-34
  1.26621509E-35  2.22387234E-33  9.87769966E-33  0.00000000E+00  0.00000000E+00
  0.00000000E+00 -1.80643297E-32  0.00000000E+00  0.00000000E+00  0.00000000E+00
 -8.34878742E-33  0.00000000E+00  0.00000000E+00  0.00000000E+00 -3.05782447E-34
  0.00000000E+00  0.00000000E+00  0.00000000E+00  1.49416423E-34  1.50285123E-34
  1.51443390E-34 -2.88807076E-50  5.57512616E-36 -6.56042341E-33  5.74500355E-33
  0.00000000E+00  0.00000000E+00  0.00000000E+00  1.06699542E-32  0.00000000E+00
  0.00000000E+00  0.00000000E+00  4.37014081E-33  0.00000000E+00  0.00000000E+00
  0.00000000E+00  2.19202001E-34  0.00000000E+00  0.00000000E+00  0.00000000E+00
 -2.50475205E-34 -2.50475205E-34 -2.50764772E-34 -2.96973857E-52  1.59252231E-50
  5.57512616E-36
Mulliken Charges                           R   N=           1
 -1.00000000E+00
ONIOM Charges                              I   N=          16
          -1           0           0           0           0           0
           0           0           0           0           0           0
           0           0           0           0
ONIOM Multiplicities                       I   N=          16
           1           0           0           0           0           0
           0           0           0           0           0           0
           0           0           0           0
Atom Layers                                I   N=           1
           1
Atom Modifiers                             I   N=           1
           0
Force Field                                I                0
Atom Modified Types                        C   N=           1
            
Int Atom Modified Types                    I   N=           1
           0
Link Atoms                                 I   N=           1
           0
Atom Modified MM Charges                   R   N=           1
  0.00000000E+00
Link Distances                             R   N=           4
  0.00000000E+00  0.00000000E+00  0.00000000E+00  0.00000000E+00
Cartesian Gradient                         R   N=           3
  0.00000000E+00  0.00000000E+00  0.00000000E+00
Dipole Moment                              R   N=           3
  0.00000000E+00  0.00000000E+00  0.00000000E+00
Quadrupole Moment                          R   N=           6
 -3.55271368E-15  0.00000000E+00  0.00000000E+00  1.92027867E-32 -1.78236815E-33
  1.20441205E-31
QEq coupling tensors                       R   N=           6
  0.00000000E+00  0.00000000E+00  0.00000000E+00  0.00000000E+00  0.00000000E+00
  0.00000000E+00
