
The following have been reloaded with a version change:
  1) releases/2020b => releases/2017b

TMPDIR created
/home/unamur/ucpts/fmairess/CRYSTAL17/bin/Linux-ifort17_XE_emt64/v1.mod/crystal
         144 PROCESSORS WORKING

         
 *******************************************************************************
 *                                                                             *
 *                               CRYSTAL17                                     *
 *                      public : 1.0.2 - March 1st, 2018                       *
 *                       HTTP://WWW.CRYSTAL.UNITO.IT                           *
 *                                                                             *
 *                              MAIN AUTHORS                                   *
 *                                                                             *
 *  R. DOVESI(1,11), V.R. SAUNDERS(2), C. ROETTI(1,11), R. ORLANDO(1,11),      *
 *  C.M. ZICOVICH-WILSON(1,3), F. PASCALE(4), B. CIVALLERI(1,11),              *
 *  K. DOLL(5), N.M. HARRISON(2,6), I.J. BUSH(7), Ph. D'ARCO(8),               *
 *  M. LLUNELL(9), M. CAUSA'(10), Y. NOEL(8), L. MASCHIO(1,11), A. ERBA(1,11)  *
 *  M. RE'RAT(14), S. CASASSA(1,11)                                            *
 *                                                                             *
 *        CONTRIBUTIONS TO THE CODE HAVE ALSO BEEN GIVEN BY                    *
 *                                                                             *
 *  M. FERRABONE(1,11), M. DE LA PIERRE(1,11), M. FERRERO(1,11),               *
 *  J. BAIMA(1,11), E. ALBANESE(1,11), M.F. PEINTINGER(12), R. BAST(13),       *
 *  B. KIRTMAN(15), V. LACIVITA(1,11), R. DEMICHELIS(1,16)                     *
 *  G. BRANDEBURG(17), S. SALUSTRO(1,11), G. SANSONE(1,11)                     *
 *  M.T. RUGGIERO(18)                                                          *
 *                                                                             *
 * (1) THEORETICAL CHEMISTRY GROUP - UNIVERSITA' DI TORINO - TORINO (ITALY)    *
 * (2) COMPUTATIONAL SCIENCE & ENGINEERING DEPARTMENT - STFC DARESBURY (UK)    *
 * (3) UNIVERSIDAD AUTONOMA DEL ESTADO DE MORELOS - CUERNAVACA (MEXICO)        *
 * (4) UNIVERSITE' DE LORRAINE - NANCY (FRANCE)                                *
 * (5) UNIVERSITAET STUTTGART- STUTTGART (GERMANY)                             *
 * (6) IMPERIAL COLLEGE - LONDON (UK)                                          *
 * (7) OXFORD E-RESEARCH CENTRE - OXFORD (UK)                                  *
 * (8) UPMC - SORBONNE UNIVERSITES - PARIS (FRANCE)                            *
 * (9) UNIVERSIDAD DE BARCELONA - BARCELONA (SPAIN)                            *
 *(10) UNIVERSITA' DI NAPOLI "FEDERICO II" - NAPOLI (ITALY)                    *
 *(11) NIS - NANOSTRUCTURED INTERFACES AND SURFACES - TORINO (ITALY)           *
 *(12) MPI FUER CHEMISCHE ENERGIEKONVERSION - MUELHEIM AN DER RUHR (GERMANY)   *
 *(13) UNIVERSITY OF TROMSO - TROMSO (NORWAY)                                  *
 *(14) UNIVERSITE' DE PAU ET DES PAYS DE L'ADOUR - PAU (FRANCE)                *
 *(15) UNIVERSITY OF CALIFORNIA SANTA BARBARA - SANTA BARBARA (USA)            *
 *(16) CURTIN UNIVERSITY - PERTH (AUSTRALIA)                                   *
 *(17) UNIVERSITY COLLEGE LONDON - LONDON (UK)                                 *
 *(18) CAMBRIDGE UNIVERSITY - CAMBRIDGE (UK)                                   *
 *                                                                             *
 *******************************************************************************
 EEEEEEEEEE STARTING  DATE 09 06 2022 TIME 05:49:38.3
 LiNbO3                                                                          

 CRYSTAL CALCULATION
 (INPUT ACCORDING TO THE INTERNATIONAL TABLES FOR X-RAY CRYSTALLOGRAPHY)
 CRYSTAL FAMILY                       :  HEXAGONAL   
 CRYSTAL CLASS  (GROTH - 1921)        :  DITRIGONAL PYRAMIDAL                 

 SPACE GROUP (NONCENTROSYMMETRIC)     :  R 3 C           

 LATTICE PARAMETERS  (ANGSTROMS AND DEGREES) - CONVENTIONAL CELL
        A           B           C        ALPHA        BETA       GAMMA
     5.14829     5.14829    13.86310    90.00000    90.00000   120.00000


 NUMBER OF IRREDUCIBLE ATOMS IN THE CONVENTIONAL CELL:    3

 INPUT COORDINATES

 ATOM AT. N.              COORDINATES
   1 241     0.000000000000E+00  0.000000000000E+00  0.000000000000E+00
   2   8     5.090000000000E-02  3.587000000000E-01  5.270000000000E-02
   3   3     0.000000000000E+00  0.000000000000E+00  2.250000000000E-01

 *******************************************************************************

 << INFORMATION >>: FROM NOW ON, ALL COORDINATES REFER TO THE PRIMITIVE CELL

 *******************************************************************************

 LATTICE PARAMETERS  (ANGSTROMS AND DEGREES) - PRIMITIVE CELL
       A          B          C        ALPHA      BETA     GAMMA        VOLUME
    5.49444    5.49444    5.49444    55.87390  55.87390  55.87390    106.070774

 COORDINATES OF THE EQUIVALENT ATOMS (FRACTIONAL UNITS)

 N. ATOM EQUIV AT. N.          X                  Y                  Z

   1   1   1  241 NB    0.00000000000E+00  0.00000000000E+00  0.00000000000E+00
   2   1   2  241 NB   -5.00000000000E-01 -5.00000000000E-01 -5.00000000000E-01

   3   2   1    8 O     1.03600000000E-01  3.60500000000E-01 -3.06000000000E-01
   4   2   2    8 O    -3.06000000000E-01  1.03600000000E-01  3.60500000000E-01
   5   2   3    8 O     3.60500000000E-01 -3.06000000000E-01  1.03600000000E-01
   6   2   4    8 O    -1.39500000000E-01 -3.96400000000E-01  1.94000000000E-01
   7   2   5    8 O    -3.96400000000E-01  1.94000000000E-01 -1.39500000000E-01
   8   2   6    8 O     1.94000000000E-01 -1.39500000000E-01 -3.96400000000E-01

   9   3   1    3 LI    2.25000000000E-01  2.25000000000E-01  2.25000000000E-01
  10   3   2    3 LI   -2.75000000000E-01 -2.75000000000E-01 -2.75000000000E-01

 NUMBER OF SYMMETRY OPERATORS         :    6
 *******************************************************************************
 * GEOMETRY EDITING - INPUT COORDINATES ARE GIVEN IN ANGSTROM         
 *******************************************************************************

 GEOMETRY NOW FULLY CONSISTENT WITH THE GROUP

 GCALCO - MAX INDICES DIRECT LATTICE VECTOR    14    14    14
 NO.OF VECTORS CREATED 6999 STARS  522 RMAX   106.24116 BOHR

 GEOMETRY FOR WAVE FUNCTION - DIMENSIONALITY OF THE SYSTEM    3
 (NON PERIODIC DIRECTION: LATTICE PARAMETER FORMALLY SET TO 500)
 *******************************************************************************
 LATTICE PARAMETERS (ANGSTROMS AND DEGREES) - BOHR = 0.5291772083 ANGSTROM
 PRIMITIVE CELL - CENTRING CODE 7/0 VOLUME=   106.070774 - DENSITY  4.631 g/cm^3
         A              B              C           ALPHA      BETA       GAMMA 
     5.49444377     5.49444377     5.49444377    55.873900  55.873900  55.873900
 *******************************************************************************
 ATOMS IN THE ASYMMETRIC UNIT    3 - ATOMS IN THE UNIT CELL:   10
     ATOM                 X/A                 Y/B                 Z/C    
 *******************************************************************************
      1 T 241 NB    0.000000000000E+00  0.000000000000E+00  0.000000000000E+00
      2 F 241 NB    5.000000000000E-01  5.000000000000E-01  5.000000000000E-01
      3 T   8 O     1.036000000000E-01  3.605000000000E-01 -3.060000000000E-01
      4 F   8 O    -3.060000000000E-01  1.036000000000E-01  3.605000000000E-01
      5 F   8 O     3.605000000000E-01 -3.060000000000E-01  1.036000000000E-01
      6 F   8 O    -1.395000000000E-01 -3.964000000000E-01  1.940000000000E-01
      7 F   8 O    -3.964000000000E-01  1.940000000000E-01 -1.395000000000E-01
      8 F   8 O     1.940000000000E-01 -1.395000000000E-01 -3.964000000000E-01
      9 T   3 LI    2.250000000000E-01  2.250000000000E-01  2.250000000000E-01
     10 F   3 LI   -2.750000000000E-01 -2.750000000000E-01 -2.750000000000E-01

 TRANSFORMATION MATRIX PRIMITIVE-CRYSTALLOGRAPHIC CELL
  1.0000  0.0000  1.0000 -1.0000  1.0000  1.0000  0.0000 -1.0000  1.0000

 *******************************************************************************
 CRYSTALLOGRAPHIC CELL (VOLUME=        318.21232198)
         A              B              C           ALPHA      BETA       GAMMA 
     5.14829000     5.14829000    13.86310000    90.000000  90.000000 120.000000

 COORDINATES IN THE CRYSTALLOGRAPHIC CELL
     ATOM                 X/A                 Y/B                 Z/C    
 *******************************************************************************
      1 T 241 NB    0.000000000000E+00  0.000000000000E+00  0.000000000000E+00
      2 F 241 NB    0.000000000000E+00  0.000000000000E+00  5.000000000000E-01
      3 T   8 O     5.090000000000E-02  3.587000000000E-01  5.270000000000E-02
      4 F   8 O    -3.587000000000E-01 -3.078000000000E-01  5.270000000000E-02
      5 F   8 O     3.078000000000E-01 -5.090000000000E-02  5.270000000000E-02
      6 F   8 O    -2.553333333333E-02 -3.079666666667E-01 -1.139666666667E-01
      7 F   8 O    -2.824333333333E-01  2.553333333333E-02 -1.139666666667E-01
      8 F   8 O     3.079666666667E-01  2.824333333333E-01 -1.139666666667E-01
      9 T   3 LI    0.000000000000E+00  0.000000000000E+00  2.250000000000E-01
     10 F   3 LI   -3.333333333333E-01  3.333333333333E-01  5.833333333333E-02

 T = ATOM BELONGING TO THE ASYMMETRIC UNIT

 ****    6 SYMMOPS - TRANSLATORS IN FRACTIONAL UNITS
 **** MATRICES AND TRANSLATORS IN THE CRYSTALLOGRAPHIC REFERENCE FRAME
   V INV                    ROTATION MATRICES                   TRANSLATORS
   1   1  1.00  0.00  0.00  0.00  1.00  0.00  0.00  0.00  1.00  0.00  0.00  0.00
   2   3 -0.00  0.00  1.00  1.00 -0.00 -0.00 -0.00  1.00  0.00  0.00  0.00  0.00
   3   2 -0.00  1.00  0.00 -0.00  0.00  1.00  1.00 -0.00 -0.00  0.00  0.00  0.00
   4   4 -0.00  1.00  0.00  1.00 -0.00 -0.00 -0.00  0.00  1.00  0.50  0.50  0.50
   5   5  1.00 -0.00 -0.00 -0.00 -0.00  1.00 -0.00  1.00 -0.00  0.50  0.50  0.50
   6   6 -0.00  0.00  1.00 -0.00  1.00  0.00  1.00 -0.00 -0.00  0.50  0.50  0.50

 DIRECT LATTICE VECTORS CARTESIAN COMPONENTS (ANGSTROM)
          X                    Y                    Z
   0.297236661737E+01   0.000000000000E+00   0.462103333333E+01
  -0.148618330868E+01   0.257414500000E+01   0.462103333333E+01
  -0.148618330868E+01  -0.257414500000E+01   0.462103333333E+01


 CARTESIAN COORDINATES - PRIMITIVE CELL
 *******************************************************************************
 *      ATOM          X(ANGSTROM)         Y(ANGSTROM)         Z(ANGSTROM)
 *******************************************************************************
    1   241 NB    0.000000000000E+00  0.000000000000E+00  0.000000000000E+00
    2   241 NB    0.000000000000E+00  0.000000000000E+00  6.931550000000E+00
    3     8 O     2.269401912359E-01  1.715667642500E+00  7.305853700000E-01
    4     8 O    -1.599281858474E+00 -6.612978505000E-01  7.305853700000E-01
    5     8 O     1.372341667238E+00 -1.054369792000E+00  7.305853700000E-01
    6     8 O    -1.138416414451E-01 -1.519775208000E+00 -1.579931296667E+00
    7     8 O    -1.259243117447E+00  8.584773575000E-01 -1.579931296667E+00
    8     8 O     1.373084758892E+00  6.612978505000E-01 -1.579931296667E+00
    9     3 LI    0.000000000000E+00  0.000000000000E+00  3.119197500000E+00
   10     3 LI   -1.486183308683E+00 -2.574145000000E+00  8.086808333333E-01

 *******************************************************************************
 *** PSEUDOPOTENTIAL INFORMATION ***
 *******************************************************************************

 ATOMIC NUMBER  41, NUCLEAR CHARGE 13.000, GIVEN IN INPUT       PSEUDOPOTENTIAL
   TYPE       EXPONENT      COEFF.    N      EXPONENT      COEFF.    N
  P0 TMS     9.3765780  165.1567360   0     4.0435720   21.8239510   0
  P1 TMS     8.3636090   37.2492840   0     8.1668980   74.5073890   0
             3.6930750    5.4394860   0     3.5510470   10.9132520   0
  P2 TMS     6.6891080   15.2145490   0     6.5371930   22.8335080   0
             2.5511180    3.0000520   0     2.5678960    4.5537340   0
  P3 TMS     5.5682850   -6.2813540   0     5.6713720   -8.7556440   0

 *******************************************************************************
 LOCAL ATOMIC FUNCTIONS BASIS SET
 *******************************************************************************
   ATOM   X(AU)   Y(AU)   Z(AU)  N. TYPE  EXPONENT  S COEF   P COEF   D/F/G COEF
 *******************************************************************************
   1 NB   0.000   0.000   0.000
                                  1 S  
                                         1.200E+01-2.022E-01 0.000E+00 0.000E+00
                                         1.050E+01 3.364E-01 0.000E+00 0.000E+00
                                  2 S  
                                         3.960E+00 1.000E+00 0.000E+00 0.000E+00
                                  3 S  
                                         8.005E-01 1.000E+00 0.000E+00 0.000E+00
                                  4 S  
                                         4.027E-01 1.000E+00 0.000E+00 0.000E+00
                           5-     7 P  
                                         9.206E+00 0.000E+00 4.335E-02 0.000E+00
                                         4.868E+00 0.000E+00-2.130E-01 0.000E+00
                                         1.244E+00 0.000E+00 4.810E-01 0.000E+00
                                         6.039E-01 0.000E+00 5.392E-01 0.000E+00
                           8-    10 P  
                                         6.797E-01 0.000E+00 1.000E+00 0.000E+00
                          11-    13 P  
                                         2.863E-01 0.000E+00 1.000E+00 0.000E+00
                          14-    18 D  
                                         4.617E+00 0.000E+00 0.000E+00-1.357E-02
                                         1.566E+00 0.000E+00 0.000E+00 2.037E-01
                                         6.695E-01 0.000E+00 0.000E+00 4.300E-01
                          19-    23 D  
                                         6.714E-01 0.000E+00 0.000E+00 1.000E+00
                          24-    28 D  
                                         3.505E-01 0.000E+00 0.000E+00 1.000E+00
                          29-    35 F  
                                         5.227E-01 0.000E+00 0.000E+00 1.000E+00
   2 NB   0.000   0.000  13.099
   3 O    0.429   3.242   1.381
                                 71 S  
                                         8.588E+03 1.895E-03 0.000E+00 0.000E+00
                                         1.297E+03 1.439E-02 0.000E+00 0.000E+00
                                         2.993E+02 7.073E-02 0.000E+00 0.000E+00
                                         8.738E+01 2.400E-01 0.000E+00 0.000E+00
                                         2.568E+01 5.948E-01 0.000E+00 0.000E+00
                                         3.740E+00 2.808E-01 0.000E+00 0.000E+00
                          72-    75 SP 
                                         4.212E+01 1.139E-01 3.651E-02 0.000E+00
                                         9.628E+00 9.208E-01 2.372E-01 0.000E+00
                                         2.853E+00-3.274E-03 8.197E-01 0.000E+00
                          76-    79 SP 
                                         9.057E-01 1.000E+00 1.000E+00 0.000E+00
                          80-    83 SP 
                                         2.556E-01 1.000E+00 1.000E+00 0.000E+00
                          84-    88 D  
                                         1.292E+00 0.000E+00 0.000E+00 1.000E+00
   4 O   -3.022  -1.250   1.381
   5 O    2.593  -1.992   1.381
   6 O   -0.215  -2.872  -2.986
   7 O   -2.380   1.622  -2.986
   8 O    2.595   1.250  -2.986
   9 LI   0.000   0.000   5.894
                                179 S  
                                         6.269E+03 2.054E-04 0.000E+00 0.000E+00
                                         9.403E+02 1.592E-03 0.000E+00 0.000E+00
                                         2.142E+02 8.287E-03 0.000E+00 0.000E+00
                                         6.076E+01 3.386E-02 0.000E+00 0.000E+00
                                         1.992E+01 1.110E-01 0.000E+00 0.000E+00
                                         7.317E+00 2.745E-01 0.000E+00 0.000E+00
                                180 S  
                                         2.972E+00 2.379E-01 0.000E+00 0.000E+00
                                         1.264E+00 3.077E-01 0.000E+00 0.000E+00
                                181 S  
                                         5.026E-01 1.000E+00 0.000E+00 0.000E+00
                                182 S  
                                         1.001E-01 1.000E+00 0.000E+00 0.000E+00
                         183-   185 P  
                                         1.451E-01 0.000E+00 1.000E+00 0.000E+00
  10 LI  -2.808  -4.864   1.528
 INFORMATION **** SET_MPP **** PCRYSTAL CALCULATION
 INFORMATION **** READM2 **** NEW DEFAULT: FOCK/KS MATRIX MIXING SET TO 30 %
 INFORMATION **** READM2 **** NEW DEFAULT: FULL DIRECT SCF MODE
 INFORMATION **** READM2 **** NEW DEFAULT: COULOMB BIPOLAR BUFFER SET TO 32 Mb
 INFORMATION **** READM2 **** NEW DEFAULT: EXCHANGE BIPOLAR BUFFER SET TO 32 Mb

 *******************************************************************************
 NEW DEFAULT: DFT INTEGRATION GRID INCREASED TO XLGRID
 NEW DEFAULT: DIIS ACCELERATOR ACTIVE
 USE KEYWORD NODIIS TO TURN IT OFF
 *******************************************************************************

 WARNING **** RDDFTP **** Iikura-Tsuneda-Yanai-Hirao LC-BLYP ACTIVE
 RANGE SEPARATION - OMEGA:   0.470000000000000     
 INFORMATION **** RDDFTP ****  NEW VALUE FOR OMEGA LR IN LC-RSH
 OMEGA (SHORT-RANGE)[LONG-RANGE]:(    0.2000)[    0.0000]
 INFORMATION **** TOLINTEG **** COULOMB AND EXCHANGE SERIES TOLERANCES MODIFIED
 *******************************************************************************
 N. OF ATOMS PER CELL        10  COULOMB OVERLAP TOL         (T1) 10**  -10
 NUMBER OF SHELLS            62  COULOMB PENETRATION TOL     (T2) 10**  -10
 NUMBER OF AO               192  EXCHANGE OVERLAP TOL        (T3) 10**  -10
 N. OF ELECTRONS PER CELL    80  EXCHANGE PSEUDO OVP (F(G))  (T4) 10**  -36
 CORE ELECTRONS PER CELL     16  EXCHANGE PSEUDO OVP (P(G))  (T5) 10**  -70
 N. OF SYMMETRY OPERATORS     6  POLE ORDER IN MONO ZONE                  4
 *******************************************************************************
 TYPE OF CALCULATION :  RESTRICTED CLOSED SHELL
 KOHN-SHAM HAMILTONIAN

 (EXCHANGE)[CORRELATION] FUNCTIONAL:(PBEsol GGA)[PBEsol]

 RANGE-SEPARATED HYBRID FUNCTIONAL 
 OMEGA (SHORT-RANGE)[LONG-RANGE]:(    0.2000)[    0.0000]

 HYBRID EXCHANGE - PERCENTAGE OF FOCK EXCHANGE    31.6500
 CORE  PSEUDO POTENTIAL         TOL. ON PSEUDO              (TP) 10**- 6

 CAPPA:IS1  5;IS2  5;IS3  5; K PTS MONK NET  19; SYMMOPS:K SPACE  12;G SPACE   6

 *******************************************************************************
 MAX NUMBER OF SCF CYCLES      50  CONVERGENCE ON DELTAP        10**-16
 WEIGHT OF F(I) IN F(I+1)      30% CONVERGENCE ON ENERGY        10**- 6
 SHRINK. FACT.(MONKH.)    5  5  5  NUMBER OF K POINTS IN THE IBZ     19
 SHRINKING FACTOR(GILAT NET)    5  NUMBER OF K POINTS(GILAT NET)     19
 *******************************************************************************
 *** K POINTS COORDINATES (OBLIQUE COORDINATES IN UNITS OF IS =  5)
   1-R(  0  0  0)   2-C(  1  0  0)   3-C(  2  0  0)   4-C(  1  1  0)
   5-C(  2  1  0)   6-C(  3  1  0)   7-C(  4  1  0)   8-C(  2  2  0)
   9-C(  3  2  0)  10-C(  1  1  1)  11-C(  2  1  1)  12-C(  3  1  1)
  13-C(  4  1  1)  14-C(  2  2  1)  15-C(  3  2  1)  16-C(  4  2  1)
  17-C(  3  3  1)  18-C(  2  2  2)  19-C(  3  2  2)

 DIRECT LATTICE VECTORS COMPON. (A.U.)     RECIP. LATTICE VECTORS COMPON. (A.U.) 
        X            Y            Z              X            Y            Z
    5.6169589    0.0000000    8.7324875      0.7457399    0.0000000    0.2398395
   -2.8084794    4.8644291    8.7324875     -0.3728699    0.6458297    0.2398395
   -2.8084794   -4.8644291    8.7324875     -0.3728699   -0.6458297    0.2398395

 DISK SPACE FOR EIGENVECTORS (FTN 10)     1363968 REALS

 SYMMETRY ADAPTION OF THE BLOCH FUNCTIONS ENABLED
 TTTTTTTTTTTTTTTTTTTTTTTTTTTTTT gordsh1     TELAPSE        2.27 TCPU        0.29

 MATRIX SIZE: P(G) 3578932, F(G)  661520, P(G) IRR  319406, F(G) IRR  118271
 MAX G-VECTOR INDEX FOR 1- AND 2-ELECTRON INTEGRALS1443

 TTTTTTTTTTTTTTTTTTTTTTTTTTTTTT INPUT       TELAPSE        2.44 TCPU        0.46

 NEIGHBORS OF THE NON-EQUIVALENT ATOMS

 N = NUMBER OF NEIGHBORS AT DISTANCE R
    ATOM  N     R/ANG      R/AU   NEIGHBORS (ATOM LABELS AND CELL INDICES)
   1 NB   3     1.8785     3.5499    3 O    0 0 0    4 O    0 0 0    5 O    0 0 0
   1 NB   3     2.1952     4.1483    6 O    0 0 0    7 O    0 0 0    8 O    0 0 0
   1 NB   3     3.0804     5.8211   10 LI   0 1-1   10 LI   1 0-1   10 LI   0 0 0
   1 NB   1     3.1192     5.8944    9 LI   0 0 0
   1 NB   3     3.3302     6.2932    9 LI  -1 0 0    9 LI   0-1 0    9 LI   0 0-1
   1 NB   3     3.5168     6.6459    3 O    0-1 1    4 O    1 0-1    5 O   -1 1 0

   3 O    1     1.8785     3.5499    1 NB   0 0 0
   3 O    1     1.9178     3.6241   10 LI   0 1-1
   3 O    1     2.1952     4.1483    2 NB   0 0-1
   3 O    2     2.6397     4.9883    4 O    1 0-1    5 O    0 1-1
   3 O    1     2.7030     5.1080    9 LI   0 0-1
   3 O    2     2.7864     5.2655    8 O    0 0 0    8 O    0 1 0

   9 LI   3     1.9178     3.6241    6 O    0 1 0    7 O    1 0 0    8 O    0 0 1
   9 LI   3     2.7030     5.1080    3 O    0 0 1    4 O    1 0 0    5 O    0 1 0
   9 LI   3     2.9497     5.5740    3 O    0 0 0    4 O    0 0 0    5 O    0 0 0
   9 LI   3     3.0804     5.8211    2 NB  -1 0 0    2 NB   0-1 0    2 NB   0 0-1
   9 LI   1     3.1192     5.8944    1 NB   0 0 0
   9 LI   3     3.2384     6.1196    6 O    1 0 0    7 O    0 0 1    8 O    0 1 0


 SYMMETRY ALLOWED INTERNAL DEGREE(S) OF FREEDOM:   4
 TTTTTTTTTTTTTTTTTTTTTTTTTTTTTT SYMM        TELAPSE        3.13 TCPU        1.15
 TTTTTTTTTTTTTTTTTTTTTTTTTTTTTT INT_SCREEN  TELAPSE        3.13 TCPU        1.15

 DFT PARAMETERS

     ATOM       ELECTRONS   NET CHARGE   R(ANGSTROM)
   1 241  NB     13.0000      0.0000     1.47000000
   3   8  O       8.0000      0.0000     0.74000000
   9   3  LI      3.0000      0.0000     1.57000000

 SIZE OF GRID=      36565
 TTTTTTTTTTTTTTTTTTTTTTTTTTTTTT MAKE_GRID2  TELAPSE        6.16 TCPU        4.16
 BECKE WEIGHT FUNCTION
 RADSAFE =     2.00
 TOLERANCES - DENSITY:10**- 6; POTENTIAL:10**- 9; GRID WGT:10**-14

 RADIAL INTEGRATION  - INTERVALS (POINTS,UPPER LIMIT):            1( 75,  4.0*R)

 ANGULAR INTEGRATION - INTERVALS (ACCURACY LEVEL [N. POINTS] UPPER LIMIT):
  1(  4[  86]   0.2)  2(  8[ 194]   0.5)  3( 12[ 350]   0.9)  4( 16[ 974]   3.5)
  5( 12[ 350]9999.0)
 TTTTTTTTTTTTTTTTTTTTTTTTTTTTTT INT_CALC    TELAPSE        6.17 TCPU        4.18
 EEEEEEEEEE INT_CALC TERMINATION  DATE 09 06 2022 TIME 05:49:43.8

 *******************************************************************************
 LiNbO3                                                                          
 CRYSTAL - SCF - TYPE OF CALCULATION :  RESTRICTED CLOSED SHELL
 *******************************************************************************

 CAPPA:IS1  5;IS2  5;IS3  5; K PTS MONK NET  19; SYMMOPS:K SPACE  12;G SPACE   6

 TTTTTTTTTTTTTTTTTTTTTTTTTTTTTT SDIK        TELAPSE        6.18 TCPU        4.18

 AAAAAAAAAAAAAAAAAAAAAAAAAAAAAAAAAAAAAAAAAAAAAAAAAAAAAAAAAAAAAAAAAAAAAAAAAAAAAAA
         ATOMIC WAVEFUNCTION(S)


 NUCLEAR CHARGE 13.0  SYMMETRY SPECIES            S    P    D
 N. ELECTRONS   13.0  NUMBER OF PRIMITIVE GTOS    5    6    5
                      NUMBER OF CONTRACTED GTOS   4    3    3
                      NUMBER OF CLOSED SHELLS     2    1    0
                      OPEN SHELL OCCUPATION       0    0    3

  ZNUC SCFIT  TOTAL HF ENERGY   KINETIC ENERGY   VIRIAL THEOREM ACCURACY
  13.0  27   -5.432439019E+01  2.215279019E+01 -3.452259500E+00  4.1E-06

 NUCLEAR CHARGE  8.0  SYMMETRY SPECIES            S    P
 N. ELECTRONS    8.0  NUMBER OF PRIMITIVE GTOS   11    5
                      NUMBER OF CONTRACTED GTOS   4    3
                      NUMBER OF CLOSED SHELLS     2    0
                      OPEN SHELL OCCUPATION       0    4

  ZNUC SCFIT  TOTAL HF ENERGY   KINETIC ENERGY   VIRIAL THEOREM ACCURACY
   8.0  13   -7.479861895E+01  7.482603849E+01 -1.999633556E+00  2.7E-06

 NUCLEAR CHARGE  3.0  SYMMETRY SPECIES            S
 N. ELECTRONS    3.0  NUMBER OF PRIMITIVE GTOS   10
                      NUMBER OF CONTRACTED GTOS   4
                      NUMBER OF CLOSED SHELLS     1
                      OPEN SHELL OCCUPATION       1

  ZNUC SCFIT  TOTAL HF ENERGY   KINETIC ENERGY   VIRIAL THEOREM ACCURACY
   3.0   6   -7.399520339E+00  7.616041389E+00 -1.971570395E+00  3.3E-06

 AAAAAAAAAAAAAAAAAAAAAAAAAAAAAAAAAAAAAAAAAAAAAAAAAAAAAAAAAAAAAAAAAAAAAAAAAAAAAAA

 TOTAL ATOMIC CHARGES:
  13.0000000  13.0000000   8.0000000   8.0000000   8.0000000   8.0000000
   8.0000000   8.0000000   3.0000000   3.0000000
 TTTTTTTTTTTTTTTTTTTTTTTTTTTTTT MOQGAD      TELAPSE        6.62 TCPU        4.62
 TTTTTTTTTTTTTTTTTTTTTTTTTTTTTT SHELLXN     TELAPSE       64.67 TCPU       62.32
 TTTTTTTTTTTTTTTTTTTTTTTTTTTTTT MONMO3      TELAPSE      131.69 TCPU      129.12
 NUMERICALLY INTEGRATED DENSITY     80.0000299176
 TTTTTTTTTTTTTTTTTTTTTTTTTTTTTT NUMDFT      TELAPSE      131.79 TCPU      129.22
 CYC   0 ETOT(AU) -5.768777249623E+02 DETOT -5.77E+02 tst  0.00E+00 PX  1.00E+00
 TTTTTTTTTTTTTTTTTTTTTTTTTTTTTT DIIS        TELAPSE      131.81 TCPU      129.24
 TTTTTTTTTTTTTTTTTTTTTTTTTTTTTT FDIK        TELAPSE      132.19 TCPU      129.44
 INSULATING STATE
 TOP OF VALENCE BANDS -    BAND     40; K    8; EIG -3.0446449E-01 AU
 TOP OF VALENCE BANDS -    BAND     40; K    1; EIG -3.1393899E-01 AU
 BOTTOM OF VIRTUAL BANDS - BAND     41; K    1; EIG -4.4081694E-03 AU
 INDIRECT ENERGY BAND GAP:   8.1650 eV
 TTTTTTTTTTTTTTTTTTTTTTTTTTTTTT PDIG        TELAPSE      132.21 TCPU      129.46
 TOTAL ATOMIC CHARGES:
   8.6703274   8.6703274   9.6234851   9.6234851   9.6234851   9.6234851
   9.6234851   9.6234851   2.4592172   2.4592172
 TTTTTTTTTTTTTTTTTTTTTTTTTTTTTT MOQGAD      TELAPSE      132.22 TCPU      129.47
 TTTTTTTTTTTTTTTTTTTTTTTTTTTTTT SHELLXN     TELAPSE      190.47 TCPU      187.48
 TTTTTTTTTTTTTTTTTTTTTTTTTTTTTT MONMO3      TELAPSE      260.40 TCPU      257.20
 NUMERICALLY INTEGRATED DENSITY     80.0000417291
 TTTTTTTTTTTTTTTTTTTTTTTTTTTTTT NUMDFT      TELAPSE      260.56 TCPU      257.36
 CYC   1 ETOT(AU) -5.790302513551E+02 DETOT -2.15E+00 tst  0.00E+00 PX  1.00E+00
 TTTTTTTTTTTTTTTTTTTTTTTTTTTTTT DIIS        TELAPSE      260.89 TCPU      257.69
 DIIS TEST: 0.23931E+02 AT SCF   CYCLE   1 - MIX   30 %
 TTTTTTTTTTTTTTTTTTTTTTTTTTTTTT FDIK        TELAPSE      261.00 TCPU      257.75
 POSSIBLY CONDUCTING STATE - EFERMI(AU) -3.8558321E-02 (RES. CHARGE  7.55E-07;IT. 34)
 TTTTTTTTTTTTTTTTTTTTTTTTTTTTTT PDIG        TELAPSE      261.02 TCPU      257.78
 TOTAL ATOMIC CHARGES:
  15.5784899  15.5784899   7.1596172   7.1596172   7.1596172   7.1596172
   7.1596172   7.1596172   2.9426584   2.9426584
 TTTTTTTTTTTTTTTTTTTTTTTTTTTTTT MOQGAD      TELAPSE      261.02 TCPU      257.78
 TTTTTTTTTTTTTTTTTTTTTTTTTTTTTT SHELLXN     TELAPSE      319.34 TCPU      315.85
 TTTTTTTTTTTTTTTTTTTTTTTTTTTTTT MONMO3      TELAPSE      389.10 TCPU      385.38
 NUMERICALLY INTEGRATED DENSITY     80.0000095410
 TTTTTTTTTTTTTTTTTTTTTTTTTTTTTT NUMDFT      TELAPSE      389.26 TCPU      385.53
 CYC   2 ETOT(AU) -5.710381921168E+02 DETOT  7.99E+00 tst  5.67E-01 PX  1.37E+00
 TTTTTTTTTTTTTTTTTTTTTTTTTTTTTT DIIS        TELAPSE      389.58 TCPU      385.86
 DIIS TEST: 0.13672E+03 AT SCF   CYCLE   2 - DIIS ACTIVE - HISTORY:     2 CYCLES
 TTTTTTTTTTTTTTTTTTTTTTTTTTTTTT FDIK        TELAPSE      389.69 TCPU      385.93
 INSULATING STATE
 TOP OF VALENCE BANDS -    BAND     40; K    1; EIG -1.5070309E-01 AU
 BOTTOM OF VIRTUAL BANDS - BAND     41; K    6; EIG -1.1357601E-02 AU
 INDIRECT ENERGY BAND GAP:   3.7918 eV
 BOTTOM OF VIRTUAL BANDS - BAND     41; K    1; EIG  6.6819050E-03 AU
 TTTTTTTTTTTTTTTTTTTTTTTTTTTTTT PDIG        TELAPSE      389.72 TCPU      385.95
 TOTAL ATOMIC CHARGES:
  11.0203340  11.0203340   8.7503806   8.7503806   8.7503806   8.7503806
   8.7503806   8.7503806   2.7285243   2.7285243
 TTTTTTTTTTTTTTTTTTTTTTTTTTTTTT MOQGAD      TELAPSE      389.72 TCPU      385.95
 TTTTTTTTTTTTTTTTTTTTTTTTTTTTTT SHELLXN     TELAPSE      448.09 TCPU      444.08
 TTTTTTTTTTTTTTTTTTTTTTTTTTTTTT MONMO3      TELAPSE      517.75 TCPU      513.54
 NUMERICALLY INTEGRATED DENSITY     80.0000260589
 TTTTTTTTTTTTTTTTTTTTTTTTTTTTTT NUMDFT      TELAPSE      517.91 TCPU      513.69
 CYC   3 ETOT(AU) -5.812684544411E+02 DETOT -1.02E+01 tst  8.58E-02 PX  8.66E-01
 TTTTTTTTTTTTTTTTTTTTTTTTTTTTTT DIIS        TELAPSE      517.92 TCPU      513.71
 DIIS TEST: 0.26678E+01 AT SCF   CYCLE   3 - DIIS ACTIVE - HISTORY:     3 CYCLES
 TTTTTTTTTTTTTTTTTTTTTTTTTTTTTT FDIK        TELAPSE      518.00 TCPU      513.75
 INSULATING STATE
 TOP OF VALENCE BANDS -    BAND     40; K    1; EIG -2.3281950E-01 AU
 BOTTOM OF VIRTUAL BANDS - BAND     41; K    6; EIG -7.4248373E-02 AU
 INDIRECT ENERGY BAND GAP:   4.3149 eV
 BOTTOM OF VIRTUAL BANDS - BAND     41; K    1; EIG -5.8290768E-02 AU
 TTTTTTTTTTTTTTTTTTTTTTTTTTTTTT PDIG        TELAPSE      518.03 TCPU      513.77
 TOTAL ATOMIC CHARGES:
  11.0536967  11.0536967   8.7994535   8.7994535   8.7994535   8.7994535
   8.7994535   8.7994535   2.5479428   2.5479428
 TTTTTTTTTTTTTTTTTTTTTTTTTTTTTT MOQGAD      TELAPSE      518.03 TCPU      513.78
 TTTTTTTTTTTTTTTTTTTTTTTTTTTTTT SHELLXN     TELAPSE      576.31 TCPU      571.83
 TTTTTTTTTTTTTTTTTTTTTTTTTTTTTT MONMO3      TELAPSE      645.69 TCPU      641.01
 NUMERICALLY INTEGRATED DENSITY     80.0000274933
 TTTTTTTTTTTTTTTTTTTTTTTTTTTTTT NUMDFT      TELAPSE      645.84 TCPU      641.17
 CYC   4 ETOT(AU) -5.813942335600E+02 DETOT -1.26E-01 tst  7.25E-04 PX  7.23E-02
 TTTTTTTTTTTTTTTTTTTTTTTTTTTTTT DIIS        TELAPSE      646.38 TCPU      641.70
 DIIS TEST: 0.79471E+00 AT SCF   CYCLE   4 - DIIS ACTIVE - HISTORY:     4 CYCLES
 TTTTTTTTTTTTTTTTTTTTTTTTTTTTTT FDIK        TELAPSE      646.46 TCPU      641.76
 INSULATING STATE
 TOP OF VALENCE BANDS -    BAND     40; K    1; EIG -2.2167551E-01 AU
 BOTTOM OF VIRTUAL BANDS - BAND     41; K    6; EIG -4.5152133E-02 AU
 INDIRECT ENERGY BAND GAP:   4.8034 eV
 BOTTOM OF VIRTUAL BANDS - BAND     41; K    1; EIG -2.9470325E-02 AU
 TTTTTTTTTTTTTTTTTTTTTTTTTTTTTT PDIG        TELAPSE      646.48 TCPU      641.78
 TOTAL ATOMIC CHARGES:
  10.8630384  10.8630384   8.8498741   8.8498741   8.8498741   8.8498741
   8.8498741   8.8498741   2.5873392   2.5873392
 TTTTTTTTTTTTTTTTTTTTTTTTTTTTTT MOQGAD      TELAPSE      646.48 TCPU      641.78
 TTTTTTTTTTTTTTTTTTTTTTTTTTTTTT SHELLXN     TELAPSE      704.79 TCPU      699.87
 TTTTTTTTTTTTTTTTTTTTTTTTTTTTTT MONMO3      TELAPSE      774.21 TCPU      769.10
 NUMERICALLY INTEGRATED DENSITY     80.0000277537
 TTTTTTTTTTTTTTTTTTTTTTTTTTTTTT NUMDFT      TELAPSE      774.37 TCPU      769.25
 CYC   5 ETOT(AU) -5.814317280695E+02 DETOT -3.75E-02 tst  1.36E-04 PX  6.83E-02
 TTTTTTTTTTTTTTTTTTTTTTTTTTTTTT DIIS        TELAPSE      774.40 TCPU      769.29
 DIIS TEST: 0.30257E+00 AT SCF   CYCLE   5 - DIIS ACTIVE - HISTORY:     5 CYCLES
 TTTTTTTTTTTTTTTTTTTTTTTTTTTTTT FDIK        TELAPSE      774.50 TCPU      769.33
 INSULATING STATE
 TOP OF VALENCE BANDS -    BAND     40; K    1; EIG -2.3091629E-01 AU
 BOTTOM OF VIRTUAL BANDS - BAND     41; K    6; EIG -3.7380875E-02 AU
 INDIRECT ENERGY BAND GAP:   5.2664 eV
 BOTTOM OF VIRTUAL BANDS - BAND     41; K    1; EIG -2.2175694E-02 AU
 TTTTTTTTTTTTTTTTTTTTTTTTTTTTTT PDIG        TELAPSE      774.52 TCPU      769.35
 TOTAL ATOMIC CHARGES:
  10.6713706  10.6713706   8.9175372   8.9175372   8.9175372   8.9175372
   8.9175372   8.9175372   2.5760179   2.5760179
 TTTTTTTTTTTTTTTTTTTTTTTTTTTTTT MOQGAD      TELAPSE      774.53 TCPU      769.35
 TTTTTTTTTTTTTTTTTTTTTTTTTTTTTT SHELLXN     TELAPSE      832.82 TCPU      827.41
 TTTTTTTTTTTTTTTTTTTTTTTTTTTTTT MONMO3      TELAPSE      902.30 TCPU      896.70
 NUMERICALLY INTEGRATED DENSITY     80.0000286489
 TTTTTTTTTTTTTTTTTTTTTTTTTTTTTT NUMDFT      TELAPSE      902.46 TCPU      896.85
 CYC   6 ETOT(AU) -5.814514801719E+02 DETOT -1.98E-02 tst  2.06E-04 PX  4.19E-02
 TTTTTTTTTTTTTTTTTTTTTTTTTTTTTT DIIS        TELAPSE      902.50 TCPU      896.89
 DIIS TEST: 0.11933E-02 AT SCF   CYCLE   6 - DIIS ACTIVE - HISTORY:     6 CYCLES
 TTTTTTTTTTTTTTTTTTTTTTTTTTTTTT FDIK        TELAPSE      902.59 TCPU      896.93
 INSULATING STATE
 TOP OF VALENCE BANDS -    BAND     40; K    1; EIG -2.3109330E-01 AU
 BOTTOM OF VIRTUAL BANDS - BAND     41; K    6; EIG -3.7183704E-02 AU
 INDIRECT ENERGY BAND GAP:   5.2766 eV
 BOTTOM OF VIRTUAL BANDS - BAND     41; K    1; EIG -2.1902970E-02 AU
 TTTTTTTTTTTTTTTTTTTTTTTTTTTTTT PDIG        TELAPSE      902.62 TCPU      896.95
 TOTAL ATOMIC CHARGES:
  10.6613152  10.6613152   8.9211463   8.9211463   8.9211463   8.9211463
   8.9211463   8.9211463   2.5752458   2.5752458
 TTTTTTTTTTTTTTTTTTTTTTTTTTTTTT MOQGAD      TELAPSE      902.62 TCPU      896.96
 TTTTTTTTTTTTTTTTTTTTTTTTTTTTTT SHELLXN     TELAPSE      960.91 TCPU      955.02
 TTTTTTTTTTTTTTTTTTTTTTTTTTTTTT MONMO3      TELAPSE     1030.37 TCPU     1024.28
 NUMERICALLY INTEGRATED DENSITY     80.0000287457
 TTTTTTTTTTTTTTTTTTTTTTTTTTTTTT NUMDFT      TELAPSE     1030.52 TCPU     1024.43
 CYC   7 ETOT(AU) -5.814515565380E+02 DETOT -7.64E-05 tst  8.03E-07 PX  1.90E-03
 TTTTTTTTTTTTTTTTTTTTTTTTTTTTTT DIIS        TELAPSE     1031.46 TCPU     1025.37
 DIIS TEST: 0.52787E-04 AT SCF   CYCLE   7 - DIIS ACTIVE - HISTORY:     7 CYCLES
 TTTTTTTTTTTTTTTTTTTTTTTTTTTTTT FDIK        TELAPSE     1031.55 TCPU     1025.38
 INSULATING STATE
 TOP OF VALENCE BANDS -    BAND     40; K    1; EIG -2.3112548E-01 AU
 BOTTOM OF VIRTUAL BANDS - BAND     41; K    6; EIG -3.7112642E-02 AU
 INDIRECT ENERGY BAND GAP:   5.2794 eV
 BOTTOM OF VIRTUAL BANDS - BAND     41; K    1; EIG -2.1811494E-02 AU
 TTTTTTTTTTTTTTTTTTTTTTTTTTTTTT PDIG        TELAPSE     1031.58 TCPU     1025.40
 TOTAL ATOMIC CHARGES:
  10.6606660  10.6606660   8.9213596   8.9213596   8.9213596   8.9213596
   8.9213596   8.9213596   2.5752550   2.5752550
 TTTTTTTTTTTTTTTTTTTTTTTTTTTTTT MOQGAD      TELAPSE     1031.58 TCPU     1025.41
 TTTTTTTTTTTTTTTTTTTTTTTTTTTTTT SHELLXN     TELAPSE     1089.86 TCPU     1083.46
 TTTTTTTTTTTTTTTTTTTTTTTTTTTTTT MONMO3      TELAPSE     1159.31 TCPU     1152.72
 NUMERICALLY INTEGRATED DENSITY     80.0000287264
 TTTTTTTTTTTTTTTTTTTTTTTTTTTTTT NUMDFT      TELAPSE     1159.47 TCPU     1152.88
 CYC   8 ETOT(AU) -5.814515596834E+02 DETOT -3.15E-06 tst  1.03E-07 PX  5.96E-04
 TTTTTTTTTTTTTTTTTTTTTTTTTTTTTT DIIS        TELAPSE     1159.57 TCPU     1152.98
 DIIS TEST: 0.22530E-05 AT SCF   CYCLE   8 - DIIS ACTIVE - HISTORY:     8 CYCLES
 TTTTTTTTTTTTTTTTTTTTTTTTTTTTTT FDIK        TELAPSE     1159.65 TCPU     1153.02
 INSULATING STATE
 TOP OF VALENCE BANDS -    BAND     40; K    1; EIG -2.3112151E-01 AU
 BOTTOM OF VIRTUAL BANDS - BAND     41; K    6; EIG -3.7102741E-02 AU
 INDIRECT ENERGY BAND GAP:   5.2795 eV
 BOTTOM OF VIRTUAL BANDS - BAND     41; K    1; EIG -2.1807519E-02 AU
 TTTTTTTTTTTTTTTTTTTTTTTTTTTTTT PDIG        TELAPSE     1159.69 TCPU     1153.06
 TOTAL ATOMIC CHARGES:
  10.6606798  10.6606798   8.9213675   8.9213675   8.9213675   8.9213675
   8.9213675   8.9213675   2.5752177   2.5752177
 TTTTTTTTTTTTTTTTTTTTTTTTTTTTTT MOQGAD      TELAPSE     1159.70 TCPU     1153.06
 TTTTTTTTTTTTTTTTTTTTTTTTTTTTTT SHELLXN     TELAPSE     1218.00 TCPU     1211.14
 TTTTTTTTTTTTTTTTTTTTTTTTTTTTTT MONMO3      TELAPSE     1287.38 TCPU     1280.30
 NUMERICALLY INTEGRATED DENSITY     80.0000287297
 TTTTTTTTTTTTTTTTTTTTTTTTTTTTTT NUMDFT      TELAPSE     1287.54 TCPU     1280.45
 CYC   9 ETOT(AU) -5.814515598414E+02 DETOT -1.58E-07 tst  3.33E-09 PX  1.25E-04
 TTTTTTTTTTTTTTTTTTTTTTTTTTTTTT DIIS        TELAPSE     1287.64 TCPU     1280.55
 DIIS TEST: 0.44458E-07 AT SCF   CYCLE   9 - DIIS ACTIVE - HISTORY:     9 CYCLES
 TTTTTTTTTTTTTTTTTTTTTTTTTTTTTT FDIK        TELAPSE     1287.79 TCPU     1280.56
 INSULATING STATE
 TOP OF VALENCE BANDS -    BAND     40; K    1; EIG -2.3111879E-01 AU
 BOTTOM OF VIRTUAL BANDS - BAND     41; K    6; EIG -3.7104235E-02 AU
 INDIRECT ENERGY BAND GAP:   5.2794 eV
 BOTTOM OF VIRTUAL BANDS - BAND     41; K    1; EIG -2.1808984E-02 AU
 TTTTTTTTTTTTTTTTTTTTTTTTTTTTTT PDIG        TELAPSE     1287.82 TCPU     1280.58
 TOTAL ATOMIC CHARGES:
  10.6607266  10.6607266   8.9213502   8.9213502   8.9213502   8.9213502
   8.9213502   8.9213502   2.5752229   2.5752229
 TTTTTTTTTTTTTTTTTTTTTTTTTTTTTT MOQGAD      TELAPSE     1287.82 TCPU     1280.59
 TTTTTTTTTTTTTTTTTTTTTTTTTTTTTT SHELLXN     TELAPSE     1346.05 TCPU     1338.64
 +++ ENERGIES IN A.U. +++
 ::: EXT EL-POLE                                  -2.2845942358799E+03
 ::: EXT EL-SPHEROPOLE                             1.7788117521508E+01
 ::: BIELET ZONE E-E                               2.4034834439374E+03
 ::: TOTAL E-E                                     1.3667732557898E+02
 ::: TOTAL E-N + N-E                              -9.2898941191219E+02
 ::: TOTAL N-N                                    -2.2326248054552E+02
 ::: KINETIC ENERGY                                5.0120328434938E+02
 ::: PSEUDO TOTAL   ENERGY                        -5.1437128252935E+02
 ::: VIRIAL COEFFICIENT                            9.8703394254896E-01
 TTTTTTTTTTTTTTTTTTTTTTTTTTTTTT MONMO3      TELAPSE     1415.53 TCPU     1407.92
 NUMERICALLY INTEGRATED DENSITY     80.0000287293
 TTTTTTTTTTTTTTTTTTTTTTTTTTTTTT NUMDFT      TELAPSE     1415.68 TCPU     1408.07
 CYC  10 ETOT(AU) -5.814515598449E+02 DETOT -3.43E-09 tst  6.83E-11 PX  1.25E-04

 == SCF ENDED - CONVERGENCE ON ENERGY      E(AU) -5.8145155984486E+02 CYCLES  10


 ENERGY EXPRESSION=HARTREE+FOCK EXCH*0.00000+(PBESOL     EXCH)*1.00000+PBESOL     CORR


 TOTAL ENERGY(DFT)(AU)( 10) -5.8145155984486E+02 DE-3.4E-09 tester 6.8E-11
 TTTTTTTTTTTTTTTTTTTTTTTTTTTTTT EDFT        TELAPSE     1415.68 TCPU     1408.07
 INSULATING STATE
 TOP OF VALENCE BANDS -    BAND     40; K    1; EIG -2.3111631E-01 AU
 BOTTOM OF VIRTUAL BANDS - BAND     41; K    6; EIG -3.7105600E-02 AU
 INDIRECT ENERGY BAND GAP:   5.2793 eV
 BOTTOM OF VIRTUAL BANDS - BAND     41; K    1; EIG -2.1810075E-02 AU
 EIGENVECTORS IN FORTRAN UNIT  8
 EEEEEEEEEE SCF TERMINATION  DATE 09 06 2022 TIME 06:13:15.2

     *********************************************************************
     * ***************************************************************** *
     * *        COUPLED-PERTURBED KOHN-SHAM CALCULATION (CPKS)         * *
     * *        REFERENCES TO BE QUOTED WHEN USING THIS MODULE:        * *
     * *        (1) M. Ferrero, M. Rerat, R. Orlando, R.Dovesi,        * *
     * *            J. Comput. Chem. 29 (2008), 1450;                  * *
     * *            J. Chem. Phys. 128 (2008), 014110.                 * *
     * *        (2) M. Ferrero, M. Rerat, B. Kirtman, R. Dovesi,       * *
     * *            J. Chem. Phys. 129 (2008), 244110.                 * *
     * ***************************************************************** *
     *********************************************************************

 INFORMATION **** CP_DRIVER **** CONVERGENCE ON ALPHA: 10**          -4
 INFORMATION **** CP_DRIVER **** MAX NUMBER OF CPHF/CPKS CYCLES         100
 INFORMATION **** CP_DRIVER **** CPHF/CPKS DAMPING PERCENTAGE:           0
 DYNAMIC FIELD: RUN  1/  1 - RADIATION WAVELENGTH: 1064.0000 NM

  Frequency multiple:    0.000  0 x    1.165 eV

 *******************************************************************************

 ELECTRIC FIELD APPLIED ALONG CARTESIAN DIRECTION X

 *******************************************************************************
 THE NUMBER OF SYMMETRY OPERATORS HAS BEEN REDUCED FROM  6 TO  1

 NEW GRID IN RECIPROCAL SPACE
 *******************************************************************************
 POINTS IN THE IBZ                  63 SHRINKING FACTORS               5  5  5
 *******************************************************************************
 *** K POINTS COORDINATES (OBLIQUE COORDINATES IN UNITS OF SHRINK FAC. )
   1-R(  0  0  0)   2-C(  1  0  0)   3-C(  0  1  0)   4-C(  0  0  1)
   5-C(  2  0  0)   6-C(  0  2  0)   7-C(  0  0  2)   8-C(  1  1  0)
   9-C(  0  1  1)  10-C(  1  0  1)  11-C(  2  1  0)  12-C(  0  2  1)
  13-C(  1  0  2)  14-C(  1  2  0)  15-C(  2  0  1)  16-C(  0  1  2)
  17-C(  3  1  0)  18-C(  0  3  1)  19-C(  1  0  3)  20-C(  1  3  0)
  21-C(  3  0  1)  22-C(  0  1  3)  23-C(  4  1  0)  24-C(  0  4  1)
  25-C(  1  0  4)  26-C(  2  2  0)  27-C(  0  2  2)  28-C(  2  0  2)
  29-C(  3  2  0)  30-C(  0  3  2)  31-C(  2  0  3)  32-C(  1  1  1)
  33-C(  2  1  1)  34-C(  1  2  1)  35-C(  1  1  2)  36-C(  3  1  1)
  37-C(  1  3  1)  38-C(  1  1  3)  39-C(  4  1  1)  40-C(  1  4  1)
  41-C(  1  1  4)  42-C(  2  2  1)  43-C(  1  2  2)  44-C(  2  1  2)
  45-C(  3  2  1)  46-C(  1  3  2)  47-C(  2  1  3)  48-C(  2  3  1)
  49-C(  3  1  2)  50-C(  1  2  3)  51-C(  4  2  1)  52-C(  1  4  2)
  53-C(  2  1  4)  54-C(  2  4  1)  55-C(  4  1  2)  56-C(  1  2  4)
  57-C(  3  3  1)  58-C(  1  3  3)  59-C(  3  1  3)  60-C(  2  2  2)
  61-C(  3  2  2)  62-C(  2  3  2)  63-C(  2  2  3)

 GCALCO - MAX INDICES DIRECT LATTICE VECTOR    14    14    14
 NO.OF VECTORS CREATED 6999 STARS  522 RMAX   106.24116 BOHR
 TTTTTTTTTTTTTTTTTTTTTTTTTTTTTT gordsh1     TELAPSE     1418.32 TCPU     1410.08

 MATRIX SIZE: P(G) 3578932, F(G)  661520, P(G) IRR 1827550, F(G) IRR  671330
 MAX G-VECTOR INDEX FOR 1- AND 2-ELECTRON INTEGRALS1443

 TTTTTTTTTTTTTTTTTTTTTTTTTTTTTT INPUT       TELAPSE     1420.76 TCPU     1412.52
 TTTTTTTTTTTTTTTTTTTTTTTTTTTTTT SYMM        TELAPSE     1420.76 TCPU     1412.52

 ***** NEW REFERENCE GEOMETRY *****
 TTTTTTTTTTTTTTTTTTTTTTTTTTTTTT INT_SCREEN  TELAPSE     1420.77 TCPU     1412.52

 DFT PARAMETERS

     ATOM       ELECTRONS   NET CHARGE   R(ANGSTROM)
   1 241  NB     13.0000      0.0000     1.47000000
   3   8  O       8.0000      0.0000     0.74000000
   9   3  LI      3.0000      0.0000     1.57000000

 SIZE OF GRID=     218638
 TTTTTTTTTTTTTTTTTTTTTTTTTTTTTT MAKE_GRID2  TELAPSE     1422.81 TCPU     1414.55
 BECKE WEIGHT FUNCTION
 RADSAFE =     2.00
 TOLERANCES - DENSITY:10**- 6; POTENTIAL:10**- 9; GRID WGT:10**-14

 RADIAL INTEGRATION  - INTERVALS (POINTS,UPPER LIMIT):            1( 75,  4.0*R)

 ANGULAR INTEGRATION - INTERVALS (ACCURACY LEVEL [N. POINTS] UPPER LIMIT):
  1(  4[  86]   0.2)  2(  8[ 194]   0.5)  3( 12[ 350]   0.9)  4( 16[ 974]   3.5)
  5( 12[ 350]9999.0)
 TTTTTTTTTTTTTTTTTTTTTTTTTTTTTT INT_CALC    TELAPSE     1422.83 TCPU     1414.56
 CYCLE   0   ALPHA  210.537895  EPSILON    4.696135  DELTA    2.1054E+02
 TTTTTTTTTTTTTTTTTTTTTTTTTTTTTT MOQGAD      TELAPSE     1921.26 TCPU     1911.42
 TTTTTTTTTTTTTTTTTTTTTTTTTTTTTT CP_MONMON   TELAPSE     1921.58 TCPU     1911.73
 DIIS TEST: 0.45725E+02 AT CPHF  CYCLE   1 - MIX    0 %
 CYCLE   1   ALPHA  134.366060  EPSILON    3.358887  DELTA   -7.6172E+01
 TTTTTTTTTTTTTTTTTTTTTTTTTTTTTT MOQGAD      TELAPSE     2420.14 TCPU     2407.90
 TTTTTTTTTTTTTTTTTTTTTTTTTTTTTT CP_MONMON   TELAPSE     2420.44 TCPU     2408.20
 DIIS TEST: 0.38196E+03 AT CPHF  CYCLE   2 - DIIS ACTIVE - HISTORY:     2 CYCLES
 CYCLE   2   ALPHA  201.602414  EPSILON    4.539266  DELTA    6.7236E+01
 TTTTTTTTTTTTTTTTTTTTTTTTTTTTTT MOQGAD      TELAPSE     2918.88 TCPU     2904.70
 TTTTTTTTTTTTTTTTTTTTTTTTTTTTTT CP_MONMON   TELAPSE     2919.18 TCPU     2905.00
 DIIS TEST: 0.51257E+00 AT CPHF  CYCLE   3 - DIIS ACTIVE - HISTORY:     3 CYCLES
 CYCLE   3   ALPHA  205.203785  EPSILON    4.602491  DELTA    3.6014E+00
 TTTTTTTTTTTTTTTTTTTTTTTTTTTTTT MOQGAD      TELAPSE     3417.36 TCPU     3401.17
 TTTTTTTTTTTTTTTTTTTTTTTTTTTTTT CP_MONMON   TELAPSE     3417.68 TCPU     3401.48
 DIIS TEST: 0.47661E+00 AT CPHF  CYCLE   4 - DIIS ACTIVE - HISTORY:     4 CYCLES
 CYCLE   4   ALPHA  206.322452  EPSILON    4.622130  DELTA    1.1187E+00
 TTTTTTTTTTTTTTTTTTTTTTTTTTTTTT MOQGAD      TELAPSE     3915.83 TCPU     3897.53
 TTTTTTTTTTTTTTTTTTTTTTTTTTTTTT CP_MONMON   TELAPSE     3916.14 TCPU     3897.83
 DIIS TEST: 0.25899E-01 AT CPHF  CYCLE   5 - DIIS ACTIVE - HISTORY:     5 CYCLES
 CYCLE   5   ALPHA  206.958443  EPSILON    4.633295  DELTA    6.3599E-01
 TTTTTTTTTTTTTTTTTTTTTTTTTTTTTT MOQGAD      TELAPSE     4414.46 TCPU     4394.00
 TTTTTTTTTTTTTTTTTTTTTTTTTTTTTT CP_MONMON   TELAPSE     4414.76 TCPU     4394.30
 DIIS TEST: 0.12120E-02 AT CPHF  CYCLE   6 - DIIS ACTIVE - HISTORY:     6 CYCLES
 CYCLE   6   ALPHA  207.038122  EPSILON    4.634694  DELTA    7.9679E-02
 TTTTTTTTTTTTTTTTTTTTTTTTTTTTTT MOQGAD      TELAPSE     4912.65 TCPU     4890.05
 TTTTTTTTTTTTTTTTTTTTTTTTTTTTTT CP_MONMON   TELAPSE     4912.95 TCPU     4890.36
 DIIS TEST: 0.25864E-04 AT CPHF  CYCLE   7 - DIIS ACTIVE - HISTORY:     7 CYCLES
 CYCLE   7   ALPHA  207.046042  EPSILON    4.634833  DELTA    7.9192E-03
 TTTTTTTTTTTTTTTTTTTTTTTTTTTTTT MOQGAD      TELAPSE     5410.94 TCPU     5386.26
 TTTTTTTTTTTTTTTTTTTTTTTTTTTTTT CP_MONMON   TELAPSE     5411.25 TCPU     5386.56
 DIIS TEST: 0.17005E-05 AT CPHF  CYCLE   8 - DIIS ACTIVE - HISTORY:     8 CYCLES
 CYCLE   8   ALPHA  207.049292  EPSILON    4.634890  DELTA    3.2503E-03
 TTTTTTTTTTTTTTTTTTTTTTTTTTTTTT MOQGAD      TELAPSE     5909.21 TCPU     5882.35
 TTTTTTTTTTTTTTTTTTTTTTTTTTTTTT CP_MONMON   TELAPSE     5909.52 TCPU     5882.66
 DIIS TEST: 0.14724E-06 AT CPHF  CYCLE   9 - DIIS ACTIVE - HISTORY:     9 CYCLES
 CYCLE   9   ALPHA  207.050582  EPSILON    4.634913  DELTA    1.2901E-03
 TTTTTTTTTTTTTTTTTTTTTTTTTTTTTT MOQGAD      TELAPSE     6407.76 TCPU     6378.84
 TTTTTTTTTTTTTTTTTTTTTTTTTTTTTT CP_MONMON   TELAPSE     6408.07 TCPU     6379.16
 DIIS TEST: 0.12729E-08 AT CPHF  CYCLE  10 - DIIS ACTIVE - HISTORY:    10 CYCLES
 CYCLE  10   ALPHA  207.050617  EPSILON    4.634913  DELTA    3.5276E-05
 TTTTTTTTTTTTTTTTTTTTTTTTTTTTTT CP_SC       TELAPSE     6411.84 TCPU     6381.90

 *******************************************************************************

 ELECTRIC FIELD APPLIED ALONG CARTESIAN DIRECTION Y

 *******************************************************************************
 THE NUMBER OF SYMMETRY OPERATORS HAS BEEN REDUCED FROM  6 TO  1

 NEW GRID IN RECIPROCAL SPACE
 *******************************************************************************
 POINTS IN THE IBZ                  63 SHRINKING FACTORS               5  5  5
 *******************************************************************************
 *** K POINTS COORDINATES (OBLIQUE COORDINATES IN UNITS OF SHRINK FAC. )
   1-R(  0  0  0)   2-C(  1  0  0)   3-C(  0  1  0)   4-C(  0  0  1)
   5-C(  2  0  0)   6-C(  0  2  0)   7-C(  0  0  2)   8-C(  1  1  0)
   9-C(  0  1  1)  10-C(  1  0  1)  11-C(  2  1  0)  12-C(  0  2  1)
  13-C(  1  0  2)  14-C(  1  2  0)  15-C(  2  0  1)  16-C(  0  1  2)
  17-C(  3  1  0)  18-C(  0  3  1)  19-C(  1  0  3)  20-C(  1  3  0)
  21-C(  3  0  1)  22-C(  0  1  3)  23-C(  4  1  0)  24-C(  0  4  1)
  25-C(  1  0  4)  26-C(  2  2  0)  27-C(  0  2  2)  28-C(  2  0  2)
  29-C(  3  2  0)  30-C(  0  3  2)  31-C(  2  0  3)  32-C(  1  1  1)
  33-C(  2  1  1)  34-C(  1  2  1)  35-C(  1  1  2)  36-C(  3  1  1)
  37-C(  1  3  1)  38-C(  1  1  3)  39-C(  4  1  1)  40-C(  1  4  1)
  41-C(  1  1  4)  42-C(  2  2  1)  43-C(  1  2  2)  44-C(  2  1  2)
  45-C(  3  2  1)  46-C(  1  3  2)  47-C(  2  1  3)  48-C(  2  3  1)
  49-C(  3  1  2)  50-C(  1  2  3)  51-C(  4  2  1)  52-C(  1  4  2)
  53-C(  2  1  4)  54-C(  2  4  1)  55-C(  4  1  2)  56-C(  1  2  4)
  57-C(  3  3  1)  58-C(  1  3  3)  59-C(  3  1  3)  60-C(  2  2  2)
  61-C(  3  2  2)  62-C(  2  3  2)  63-C(  2  2  3)

 GCALCO - MAX INDICES DIRECT LATTICE VECTOR    14    14    14
 NO.OF VECTORS CREATED 6999 STARS  522 RMAX   106.24116 BOHR
 TTTTTTTTTTTTTTTTTTTTTTTTTTTTTT gordsh1     TELAPSE     6412.37 TCPU     6382.35

 MATRIX SIZE: P(G) 3578932, F(G)  661520, P(G) IRR 1827550, F(G) IRR  671330
 MAX G-VECTOR INDEX FOR 1- AND 2-ELECTRON INTEGRALS1443

 TTTTTTTTTTTTTTTTTTTTTTTTTTTTTT INPUT       TELAPSE     6412.77 TCPU     6382.75
 TTTTTTTTTTTTTTTTTTTTTTTTTTTTTT SYMM        TELAPSE     6412.77 TCPU     6382.75

 ***** NEW REFERENCE GEOMETRY *****
 TTTTTTTTTTTTTTTTTTTTTTTTTTTTTT INT_SCREEN  TELAPSE     6412.78 TCPU     6382.75

 DFT PARAMETERS

     ATOM       ELECTRONS   NET CHARGE   R(ANGSTROM)
   1 241  NB     13.0000      0.0000     1.47000000
   3   8  O       8.0000      0.0000     0.74000000
   9   3  LI      3.0000      0.0000     1.57000000

 SIZE OF GRID=     218638
 TTTTTTTTTTTTTTTTTTTTTTTTTTTTTT MAKE_GRID2  TELAPSE     6414.81 TCPU     6384.77
 BECKE WEIGHT FUNCTION
 RADSAFE =     2.00
 TOLERANCES - DENSITY:10**- 6; POTENTIAL:10**- 9; GRID WGT:10**-14

 RADIAL INTEGRATION  - INTERVALS (POINTS,UPPER LIMIT):            1( 75,  4.0*R)

 ANGULAR INTEGRATION - INTERVALS (ACCURACY LEVEL [N. POINTS] UPPER LIMIT):
  1(  4[  86]   0.2)  2(  8[ 194]   0.5)  3( 12[ 350]   0.9)  4( 16[ 974]   3.5)
  5( 12[ 350]9999.0)
 TTTTTTTTTTTTTTTTTTTTTTTTTTTTTT INT_CALC    TELAPSE     6414.82 TCPU     6384.79
 CYCLE   0   ALPHA  210.537891  EPSILON    4.696135  DELTA    2.1054E+02
 TTTTTTTTTTTTTTTTTTTTTTTTTTTTTT MOQGAD      TELAPSE     6912.78 TCPU     6880.85
 TTTTTTTTTTTTTTTTTTTTTTTTTTTTTT CP_MONMON   TELAPSE     6913.10 TCPU     6881.16
 DIIS TEST: 0.45725E+02 AT CPHF  CYCLE   1 - MIX    0 %
 CYCLE   1   ALPHA  134.366053  EPSILON    3.358887  DELTA   -7.6172E+01
 TTTTTTTTTTTTTTTTTTTTTTTTTTTTTT MOQGAD      TELAPSE     7410.83 TCPU     7377.00
 TTTTTTTTTTTTTTTTTTTTTTTTTTTTTT CP_MONMON   TELAPSE     7411.14 TCPU     7377.30
 DIIS TEST: 0.38196E+03 AT CPHF  CYCLE   2 - DIIS ACTIVE - HISTORY:     2 CYCLES
 CYCLE   2   ALPHA  201.602409  EPSILON    4.539266  DELTA    6.7236E+01
 TTTTTTTTTTTTTTTTTTTTTTTTTTTTTT MOQGAD      TELAPSE     7909.02 TCPU     7873.26
 TTTTTTTTTTTTTTTTTTTTTTTTTTTTTT CP_MONMON   TELAPSE     7909.33 TCPU     7873.56
 DIIS TEST: 0.51257E+00 AT CPHF  CYCLE   3 - DIIS ACTIVE - HISTORY:     3 CYCLES
 CYCLE   3   ALPHA  205.203779  EPSILON    4.602491  DELTA    3.6014E+00
 TTTTTTTTTTTTTTTTTTTTTTTTTTTTTT MOQGAD      TELAPSE     8407.04 TCPU     8369.35
 TTTTTTTTTTTTTTTTTTTTTTTTTTTTTT CP_MONMON   TELAPSE     8407.35 TCPU     8369.66
 DIIS TEST: 0.47661E+00 AT CPHF  CYCLE   4 - DIIS ACTIVE - HISTORY:     4 CYCLES
 CYCLE   4   ALPHA  206.322446  EPSILON    4.622130  DELTA    1.1187E+00
 TTTTTTTTTTTTTTTTTTTTTTTTTTTTTT MOQGAD      TELAPSE     8905.64 TCPU     8866.03
 TTTTTTTTTTTTTTTTTTTTTTTTTTTTTT CP_MONMON   TELAPSE     8905.95 TCPU     8866.34
 DIIS TEST: 0.25899E-01 AT CPHF  CYCLE   5 - DIIS ACTIVE - HISTORY:     5 CYCLES
 CYCLE   5   ALPHA  206.958438  EPSILON    4.633295  DELTA    6.3599E-01
 TTTTTTTTTTTTTTTTTTTTTTTTTTTTTT MOQGAD      TELAPSE     9403.55 TCPU     9361.99
 TTTTTTTTTTTTTTTTTTTTTTTTTTTTTT CP_MONMON   TELAPSE     9403.86 TCPU     9362.30
 DIIS TEST: 0.12120E-02 AT CPHF  CYCLE   6 - DIIS ACTIVE - HISTORY:     6 CYCLES
 CYCLE   6   ALPHA  207.038117  EPSILON    4.634694  DELTA    7.9679E-02
 TTTTTTTTTTTTTTTTTTTTTTTTTTTTTT MOQGAD      TELAPSE     9902.11 TCPU     9858.62
 TTTTTTTTTTTTTTTTTTTTTTTTTTTTTT CP_MONMON   TELAPSE     9902.42 TCPU     9858.92
 DIIS TEST: 0.25864E-04 AT CPHF  CYCLE   7 - DIIS ACTIVE - HISTORY:     7 CYCLES
 CYCLE   7   ALPHA  207.046036  EPSILON    4.634833  DELTA    7.9192E-03
 TTTTTTTTTTTTTTTTTTTTTTTTTTTTTT MOQGAD      TELAPSE    10399.58 TCPU    10354.20
 TTTTTTTTTTTTTTTTTTTTTTTTTTTTTT CP_MONMON   TELAPSE    10399.89 TCPU    10354.51
 DIIS TEST: 0.17005E-05 AT CPHF  CYCLE   8 - DIIS ACTIVE - HISTORY:     8 CYCLES
 CYCLE   8   ALPHA  207.049287  EPSILON    4.634890  DELTA    3.2503E-03
 TTTTTTTTTTTTTTTTTTTTTTTTTTTTTT MOQGAD      TELAPSE    10897.38 TCPU    10850.02
 TTTTTTTTTTTTTTTTTTTTTTTTTTTTTT CP_MONMON   TELAPSE    10897.68 TCPU    10850.33
 DIIS TEST: 0.14724E-06 AT CPHF  CYCLE   9 - DIIS ACTIVE - HISTORY:     9 CYCLES
 CYCLE   9   ALPHA  207.050577  EPSILON    4.634913  DELTA    1.2901E-03
 TTTTTTTTTTTTTTTTTTTTTTTTTTTTTT MOQGAD      TELAPSE    11394.92 TCPU    11345.66
 TTTTTTTTTTTTTTTTTTTTTTTTTTTTTT CP_MONMON   TELAPSE    11395.23 TCPU    11345.96
 DIIS TEST: 0.12713E-08 AT CPHF  CYCLE  10 - DIIS ACTIVE - HISTORY:    10 CYCLES
 CYCLE  10   ALPHA  207.050612  EPSILON    4.634913  DELTA    3.5283E-05
 TTTTTTTTTTTTTTTTTTTTTTTTTTTTTT CP_SC       TELAPSE    11397.20 TCPU    11347.31

 *******************************************************************************

 ELECTRIC FIELD APPLIED ALONG CARTESIAN DIRECTION Z

 *******************************************************************************
 THE NUMBER OF SYMMETRY OPERATORS HAS BEEN REDUCED FROM  6 TO  1

 NEW GRID IN RECIPROCAL SPACE
 *******************************************************************************
 POINTS IN THE IBZ                  63 SHRINKING FACTORS               5  5  5
 *******************************************************************************
 *** K POINTS COORDINATES (OBLIQUE COORDINATES IN UNITS OF SHRINK FAC. )
   1-R(  0  0  0)   2-C(  1  0  0)   3-C(  0  1  0)   4-C(  0  0  1)
   5-C(  2  0  0)   6-C(  0  2  0)   7-C(  0  0  2)   8-C(  1  1  0)
   9-C(  0  1  1)  10-C(  1  0  1)  11-C(  2  1  0)  12-C(  0  2  1)
  13-C(  1  0  2)  14-C(  1  2  0)  15-C(  2  0  1)  16-C(  0  1  2)
  17-C(  3  1  0)  18-C(  0  3  1)  19-C(  1  0  3)  20-C(  1  3  0)
  21-C(  3  0  1)  22-C(  0  1  3)  23-C(  4  1  0)  24-C(  0  4  1)
  25-C(  1  0  4)  26-C(  2  2  0)  27-C(  0  2  2)  28-C(  2  0  2)
  29-C(  3  2  0)  30-C(  0  3  2)  31-C(  2  0  3)  32-C(  1  1  1)
  33-C(  2  1  1)  34-C(  1  2  1)  35-C(  1  1  2)  36-C(  3  1  1)
  37-C(  1  3  1)  38-C(  1  1  3)  39-C(  4  1  1)  40-C(  1  4  1)
  41-C(  1  1  4)  42-C(  2  2  1)  43-C(  1  2  2)  44-C(  2  1  2)
  45-C(  3  2  1)  46-C(  1  3  2)  47-C(  2  1  3)  48-C(  2  3  1)
  49-C(  3  1  2)  50-C(  1  2  3)  51-C(  4  2  1)  52-C(  1  4  2)
  53-C(  2  1  4)  54-C(  2  4  1)  55-C(  4  1  2)  56-C(  1  2  4)
  57-C(  3  3  1)  58-C(  1  3  3)  59-C(  3  1  3)  60-C(  2  2  2)
  61-C(  3  2  2)  62-C(  2  3  2)  63-C(  2  2  3)

 GCALCO - MAX INDICES DIRECT LATTICE VECTOR    14    14    14
 NO.OF VECTORS CREATED 6999 STARS  522 RMAX   106.24116 BOHR
 TTTTTTTTTTTTTTTTTTTTTTTTTTTTTT gordsh1     TELAPSE    11397.74 TCPU    11347.73

 MATRIX SIZE: P(G) 3578932, F(G)  661520, P(G) IRR 1827550, F(G) IRR  671330
 MAX G-VECTOR INDEX FOR 1- AND 2-ELECTRON INTEGRALS1443

 TTTTTTTTTTTTTTTTTTTTTTTTTTTTTT INPUT       TELAPSE    11398.18 TCPU    11348.17
 TTTTTTTTTTTTTTTTTTTTTTTTTTTTTT SYMM        TELAPSE    11398.18 TCPU    11348.17

 ***** NEW REFERENCE GEOMETRY *****
 TTTTTTTTTTTTTTTTTTTTTTTTTTTTTT INT_SCREEN  TELAPSE    11398.19 TCPU    11348.17

 DFT PARAMETERS

     ATOM       ELECTRONS   NET CHARGE   R(ANGSTROM)
   1 241  NB     13.0000      0.0000     1.47000000
   3   8  O       8.0000      0.0000     0.74000000
   9   3  LI      3.0000      0.0000     1.57000000

 SIZE OF GRID=     218638
 TTTTTTTTTTTTTTTTTTTTTTTTTTTTTT MAKE_GRID2  TELAPSE    11400.26 TCPU    11350.23
 BECKE WEIGHT FUNCTION
 RADSAFE =     2.00
 TOLERANCES - DENSITY:10**- 6; POTENTIAL:10**- 9; GRID WGT:10**-14

 RADIAL INTEGRATION  - INTERVALS (POINTS,UPPER LIMIT):            1( 75,  4.0*R)

 ANGULAR INTEGRATION - INTERVALS (ACCURACY LEVEL [N. POINTS] UPPER LIMIT):
  1(  4[  86]   0.2)  2(  8[ 194]   0.5)  3( 12[ 350]   0.9)  4( 16[ 974]   3.5)
  5( 12[ 350]9999.0)
 TTTTTTTTTTTTTTTTTTTTTTTTTTTTTT INT_CALC    TELAPSE    11400.28 TCPU    11350.25
 CYCLE   0   ALPHA  158.085640  EPSILON    3.775300  DELTA    1.5809E+02
 TTTTTTTTTTTTTTTTTTTTTTTTTTTTTT MOQGAD      TELAPSE    11897.78 TCPU    11846.01
 TTTTTTTTTTTTTTTTTTTTTTTTTTTTTT CP_MONMON   TELAPSE    11898.09 TCPU    11846.32
 DIIS TEST: 0.85757E+01 AT CPHF  CYCLE   1 - MIX    0 %
 CYCLE   1   ALPHA  154.836668  EPSILON    3.718262  DELTA   -3.2490E+00
 TTTTTTTTTTTTTTTTTTTTTTTTTTTTTT MOQGAD      TELAPSE    12395.74 TCPU    12342.00
 TTTTTTTTTTTTTTTTTTTTTTTTTTTTTT CP_MONMON   TELAPSE    12396.05 TCPU    12342.31
 DIIS TEST: 0.51999E+02 AT CPHF  CYCLE   2 - DIIS ACTIVE - HISTORY:     2 CYCLES
 CYCLE   2   ALPHA  167.258704  EPSILON    3.936339  DELTA    1.2422E+01
 TTTTTTTTTTTTTTTTTTTTTTTTTTTTTT MOQGAD      TELAPSE    12893.49 TCPU    12837.87
 TTTTTTTTTTTTTTTTTTTTTTTTTTTTTT CP_MONMON   TELAPSE    12893.80 TCPU    12838.18
 DIIS TEST: 0.75476E+00 AT CPHF  CYCLE   3 - DIIS ACTIVE - HISTORY:     3 CYCLES
 CYCLE   3   ALPHA  169.624204  EPSILON    3.977867  DELTA    2.3655E+00
 TTTTTTTTTTTTTTTTTTTTTTTTTTTTTT MOQGAD      TELAPSE    13391.65 TCPU    13334.15
 TTTTTTTTTTTTTTTTTTTTTTTTTTTTTT CP_MONMON   TELAPSE    13391.96 TCPU    13334.45
 DIIS TEST: 0.11788E-01 AT CPHF  CYCLE   4 - DIIS ACTIVE - HISTORY:     4 CYCLES
 CYCLE   4   ALPHA  170.434032  EPSILON    3.992084  DELTA    8.0983E-01
 TTTTTTTTTTTTTTTTTTTTTTTTTTTTTT MOQGAD      TELAPSE    13890.37 TCPU    13830.94
 TTTTTTTTTTTTTTTTTTTTTTTTTTTTTT CP_MONMON   TELAPSE    13890.68 TCPU    13831.24
 DIIS TEST: 0.65108E-03 AT CPHF  CYCLE   5 - DIIS ACTIVE - HISTORY:     5 CYCLES
 CYCLE   5   ALPHA  170.574528  EPSILON    3.994551  DELTA    1.4050E-01
 TTTTTTTTTTTTTTTTTTTTTTTTTTTTTT MOQGAD      TELAPSE    14388.50 TCPU    14327.05
 TTTTTTTTTTTTTTTTTTTTTTTTTTTTTT CP_MONMON   TELAPSE    14388.80 TCPU    14327.36
 DIIS TEST: 0.22046E-04 AT CPHF  CYCLE   6 - DIIS ACTIVE - HISTORY:     6 CYCLES
 CYCLE   6   ALPHA  170.595710  EPSILON    3.994923  DELTA    2.1182E-02
 TTTTTTTTTTTTTTTTTTTTTTTTTTTTTT MOQGAD      TELAPSE    14887.10 TCPU    14823.70
 TTTTTTTTTTTTTTTTTTTTTTTTTTTTTT CP_MONMON   TELAPSE    14887.41 TCPU    14824.00
 DIIS TEST: 0.18488E-05 AT CPHF  CYCLE   7 - DIIS ACTIVE - HISTORY:     7 CYCLES
 CYCLE   7   ALPHA  170.600414  EPSILON    3.995005  DELTA    4.7041E-03
 TTTTTTTTTTTTTTTTTTTTTTTTTTTTTT MOQGAD      TELAPSE    15385.24 TCPU    15319.93
 TTTTTTTTTTTTTTTTTTTTTTTTTTTTTT CP_MONMON   TELAPSE    15385.55 TCPU    15320.24
 DIIS TEST: 0.12578E-07 AT CPHF  CYCLE   8 - DIIS ACTIVE - HISTORY:     8 CYCLES
 CYCLE   8   ALPHA  170.600783  EPSILON    3.995012  DELTA    3.6842E-04
 TTTTTTTTTTTTTTTTTTTTTTTTTTTTTT MOQGAD      TELAPSE    15882.88 TCPU    15815.62
 TTTTTTTTTTTTTTTTTTTTTTTTTTTTTT CP_MONMON   TELAPSE    15883.19 TCPU    15815.92
 DIIS TEST: 0.11114E-08 AT CPHF  CYCLE   9 - DIIS ACTIVE - HISTORY:     9 CYCLES
 CYCLE   9   ALPHA  170.600775  EPSILON    3.995012  DELTA   -7.7766E-06
 TTTTTTTTTTTTTTTTTTTTTTTTTTTTTT CP_SC       TELAPSE    15884.73 TCPU    15816.82

 *******************************************************************************

 POLARIZABILITY (ALPHA), DIELECTRIC (EPSILON) AND FIRST-ORDER ELECTRIC
 SUSCEPTIBILITY (CHI(1)) TENSORS (INDEPENDENT COMPONENTS)

  FR.(eV) COMP.   ALPHA(Re,Im)           EPSILON(Re,Im)                CHI(1)
  0.000   XX     207.0506       0.0000       4.6349       0.0000       3.6349
  0.000   XY      -0.0000       0.0000      -0.0000       0.0000      -0.0000
  0.000   XZ       0.0000      -0.0000       0.0000      -0.0000       0.0000
  0.000   YY     207.0506       0.0000       4.6349       0.0000       3.6349
  0.000   YZ      -0.0000      -0.0000      -0.0000      -0.0000      -0.0000
  0.000   ZZ     170.6008       0.0000       3.9950       0.0000       2.9950

 DIELECTRIC TENSOR

 TENSOR IN PRINCIPAL AXES SYSTEM
 AA  4.634913E+00 BB  4.634913E+00 CC  3.995012E+00

 REFRACTIVE INDICES 
 AA  1.998753E+00 BB  2.152885E+00 CC  2.152885E+00

 OPTICALLY ANISOTROPIC - UNIAXIAL CRYSTAL

 BIREFRINGENCE =  0.1541 (NEGATIVE) - OBLATE OPTICAL ELLIPSOID

 EPSILON=N**2=1+CHI(1)=1+ALPHA*4*PI/V,   4*PI/V=   0.01756 BOHR**(-3)
 ALPHA IN BOHR**3; EPSILON AND CHI(1) ARE DIMENSIONLESS.
 *******************************************************************************


  Frequency multiple:    1.165  1 x    1.165 eV

 *******************************************************************************

 ELECTRIC FIELD APPLIED ALONG CARTESIAN DIRECTION X

 *******************************************************************************
 THE NUMBER OF SYMMETRY OPERATORS HAS BEEN REDUCED FROM  6 TO  1

 NEW GRID IN RECIPROCAL SPACE
 *******************************************************************************
 POINTS IN THE IBZ                  63 SHRINKING FACTORS               5  5  5
 *******************************************************************************
 *** K POINTS COORDINATES (OBLIQUE COORDINATES IN UNITS OF SHRINK FAC. )
   1-R(  0  0  0)   2-C(  1  0  0)   3-C(  0  1  0)   4-C(  0  0  1)
   5-C(  2  0  0)   6-C(  0  2  0)   7-C(  0  0  2)   8-C(  1  1  0)
   9-C(  0  1  1)  10-C(  1  0  1)  11-C(  2  1  0)  12-C(  0  2  1)
  13-C(  1  0  2)  14-C(  1  2  0)  15-C(  2  0  1)  16-C(  0  1  2)
  17-C(  3  1  0)  18-C(  0  3  1)  19-C(  1  0  3)  20-C(  1  3  0)
  21-C(  3  0  1)  22-C(  0  1  3)  23-C(  4  1  0)  24-C(  0  4  1)
  25-C(  1  0  4)  26-C(  2  2  0)  27-C(  0  2  2)  28-C(  2  0  2)
  29-C(  3  2  0)  30-C(  0  3  2)  31-C(  2  0  3)  32-C(  1  1  1)
  33-C(  2  1  1)  34-C(  1  2  1)  35-C(  1  1  2)  36-C(  3  1  1)
  37-C(  1  3  1)  38-C(  1  1  3)  39-C(  4  1  1)  40-C(  1  4  1)
  41-C(  1  1  4)  42-C(  2  2  1)  43-C(  1  2  2)  44-C(  2  1  2)
  45-C(  3  2  1)  46-C(  1  3  2)  47-C(  2  1  3)  48-C(  2  3  1)
  49-C(  3  1  2)  50-C(  1  2  3)  51-C(  4  2  1)  52-C(  1  4  2)
  53-C(  2  1  4)  54-C(  2  4  1)  55-C(  4  1  2)  56-C(  1  2  4)
  57-C(  3  3  1)  58-C(  1  3  3)  59-C(  3  1  3)  60-C(  2  2  2)
  61-C(  3  2  2)  62-C(  2  3  2)  63-C(  2  2  3)

 GCALCO - MAX INDICES DIRECT LATTICE VECTOR    14    14    14
 NO.OF VECTORS CREATED 6999 STARS  522 RMAX   106.24116 BOHR
 TTTTTTTTTTTTTTTTTTTTTTTTTTTTTT gordsh1     TELAPSE    15885.12 TCPU    15817.19

 MATRIX SIZE: P(G) 3578932, F(G)  661520, P(G) IRR 1827550, F(G) IRR  671330
 MAX G-VECTOR INDEX FOR 1- AND 2-ELECTRON INTEGRALS1443

 TTTTTTTTTTTTTTTTTTTTTTTTTTTTTT INPUT       TELAPSE    15885.83 TCPU    15817.90
 TTTTTTTTTTTTTTTTTTTTTTTTTTTTTT SYMM        TELAPSE    15885.83 TCPU    15817.90

 ***** NEW REFERENCE GEOMETRY *****
 TTTTTTTTTTTTTTTTTTTTTTTTTTTTTT INT_SCREEN  TELAPSE    15885.83 TCPU    15817.91

 DFT PARAMETERS

     ATOM       ELECTRONS   NET CHARGE   R(ANGSTROM)
   1 241  NB     13.0000      0.0000     1.47000000
   3   8  O       8.0000      0.0000     0.74000000
   9   3  LI      3.0000      0.0000     1.57000000

 SIZE OF GRID=     218638
 TTTTTTTTTTTTTTTTTTTTTTTTTTTTTT MAKE_GRID2  TELAPSE    15887.86 TCPU    15819.93
 BECKE WEIGHT FUNCTION
 RADSAFE =     2.00
 TOLERANCES - DENSITY:10**- 6; POTENTIAL:10**- 9; GRID WGT:10**-14

 RADIAL INTEGRATION  - INTERVALS (POINTS,UPPER LIMIT):            1( 75,  4.0*R)

 ANGULAR INTEGRATION - INTERVALS (ACCURACY LEVEL [N. POINTS] UPPER LIMIT):
  1(  4[  86]   0.2)  2(  8[ 194]   0.5)  3( 12[ 350]   0.9)  4( 16[ 974]   3.5)
  5( 12[ 350]9999.0)
 TTTTTTTTTTTTTTTTTTTTTTTTTTTTTT INT_CALC    TELAPSE    15887.88 TCPU    15819.94
 CYCLE   0   ALPHA  214.990978  EPSILON    4.774312  DELTA    2.1499E+02
 TTTTTTTTTTTTTTTTTTTTTTTTTTTTTT MOQGAD      TELAPSE    16385.36 TCPU    16315.63
 TTTTTTTTTTTTTTTTTTTTTTTTTTTTTT CP_MONMON   TELAPSE    16385.69 TCPU    16315.95
 DIIS TEST: 0.47958E+02 AT CPHF  CYCLE   1 - MIX    0 %
 CYCLE   1   ALPHA  136.136589  EPSILON    3.389970  DELTA   -7.8854E+01
 TTTTTTTTTTTTTTTTTTTTTTTTTTTTTT MOQGAD      TELAPSE    16883.62 TCPU    16811.98
 TTTTTTTTTTTTTTTTTTTTTTTTTTTTTT CP_MONMON   TELAPSE    16883.93 TCPU    16812.29
 DIIS TEST: 0.40900E+03 AT CPHF  CYCLE   2 - DIIS ACTIVE - HISTORY:     2 CYCLES
 CYCLE   2   ALPHA  206.821039  EPSILON    4.630883  DELTA    7.0684E+01
 TTTTTTTTTTTTTTTTTTTTTTTTTTTTTT MOQGAD      TELAPSE    17381.84 TCPU    17308.43
 TTTTTTTTTTTTTTTTTTTTTTTTTTTTTT CP_MONMON   TELAPSE    17382.15 TCPU    17308.73
 DIIS TEST: 0.53165E+00 AT CPHF  CYCLE   3 - DIIS ACTIVE - HISTORY:     3 CYCLES
 CYCLE   3   ALPHA  210.732792  EPSILON    4.699556  DELTA    3.9118E+00
 TTTTTTTTTTTTTTTTTTTTTTTTTTTTTT MOQGAD      TELAPSE    17879.61 TCPU    17804.24
 TTTTTTTTTTTTTTTTTTTTTTTTTTTTTT CP_MONMON   TELAPSE    17879.92 TCPU    17804.55
 DIIS TEST: 0.52176E+00 AT CPHF  CYCLE   4 - DIIS ACTIVE - HISTORY:     4 CYCLES
 CYCLE   4   ALPHA  212.015752  EPSILON    4.722080  DELTA    1.2830E+00
 TTTTTTTTTTTTTTTTTTTTTTTTTTTTTT MOQGAD      TELAPSE    18377.49 TCPU    18300.23
 TTTTTTTTTTTTTTTTTTTTTTTTTTTTTT CP_MONMON   TELAPSE    18377.79 TCPU    18300.53
 DIIS TEST: 0.28188E-01 AT CPHF  CYCLE   5 - DIIS ACTIVE - HISTORY:     5 CYCLES
 CYCLE   5   ALPHA  212.788207  EPSILON    4.735640  DELTA    7.7245E-01
 TTTTTTTTTTTTTTTTTTTTTTTTTTTTTT MOQGAD      TELAPSE    18875.30 TCPU    18796.16
 TTTTTTTTTTTTTTTTTTTTTTTTTTTTTT CP_MONMON   TELAPSE    18875.61 TCPU    18796.46
 DIIS TEST: 0.15721E-02 AT CPHF  CYCLE   6 - DIIS ACTIVE - HISTORY:     6 CYCLES
 CYCLE   6   ALPHA  212.906308  EPSILON    4.737714  DELTA    1.1810E-01
 TTTTTTTTTTTTTTTTTTTTTTTTTTTTTT MOQGAD      TELAPSE    19373.26 TCPU    19292.05
 TTTTTTTTTTTTTTTTTTTTTTTTTTTTTT CP_MONMON   TELAPSE    19373.57 TCPU    19292.36
 DIIS TEST: 0.31767E-04 AT CPHF  CYCLE   7 - DIIS ACTIVE - HISTORY:     7 CYCLES
 CYCLE   7   ALPHA  212.921572  EPSILON    4.737982  DELTA    1.5264E-02
 TTTTTTTTTTTTTTTTTTTTTTTTTTTTTT MOQGAD      TELAPSE    19871.36 TCPU    19788.32
 TTTTTTTTTTTTTTTTTTTTTTTTTTTTTT CP_MONMON   TELAPSE    19871.66 TCPU    19788.62
 DIIS TEST: 0.28059E-05 AT CPHF  CYCLE   8 - DIIS ACTIVE - HISTORY:     8 CYCLES
 CYCLE   8   ALPHA  212.927174  EPSILON    4.738080  DELTA    5.6018E-03
 TTTTTTTTTTTTTTTTTTTTTTTTTTTTTT MOQGAD      TELAPSE    20369.14 TCPU    20284.24
 TTTTTTTTTTTTTTTTTTTTTTTTTTTTTT CP_MONMON   TELAPSE    20369.45 TCPU    20284.54
 DIIS TEST: 0.27826E-06 AT CPHF  CYCLE   9 - DIIS ACTIVE - HISTORY:     9 CYCLES
 CYCLE   9   ALPHA  212.928945  EPSILON    4.738111  DELTA    1.7711E-03
 TTTTTTTTTTTTTTTTTTTTTTTTTTTTTT MOQGAD      TELAPSE    20866.92 TCPU    20780.16
 TTTTTTTTTTTTTTTTTTTTTTTTTTTTTT CP_MONMON   TELAPSE    20867.23 TCPU    20780.47
 DIIS TEST: 0.57080E-07 AT CPHF  CYCLE  10 - DIIS ACTIVE - HISTORY:    10 CYCLES
 CYCLE  10   ALPHA  212.928948  EPSILON    4.738111  DELTA    2.9455E-06
 TTTTTTTTTTTTTTTTTTTTTTTTTTTTTT CP_SC       TELAPSE    20869.34 TCPU    20781.78

 *******************************************************************************

 ELECTRIC FIELD APPLIED ALONG CARTESIAN DIRECTION Y

 *******************************************************************************
 THE NUMBER OF SYMMETRY OPERATORS HAS BEEN REDUCED FROM  6 TO  1

 NEW GRID IN RECIPROCAL SPACE
 *******************************************************************************
 POINTS IN THE IBZ                  63 SHRINKING FACTORS               5  5  5
 *******************************************************************************
 *** K POINTS COORDINATES (OBLIQUE COORDINATES IN UNITS OF SHRINK FAC. )
   1-R(  0  0  0)   2-C(  1  0  0)   3-C(  0  1  0)   4-C(  0  0  1)
   5-C(  2  0  0)   6-C(  0  2  0)   7-C(  0  0  2)   8-C(  1  1  0)
   9-C(  0  1  1)  10-C(  1  0  1)  11-C(  2  1  0)  12-C(  0  2  1)
  13-C(  1  0  2)  14-C(  1  2  0)  15-C(  2  0  1)  16-C(  0  1  2)
  17-C(  3  1  0)  18-C(  0  3  1)  19-C(  1  0  3)  20-C(  1  3  0)
  21-C(  3  0  1)  22-C(  0  1  3)  23-C(  4  1  0)  24-C(  0  4  1)
  25-C(  1  0  4)  26-C(  2  2  0)  27-C(  0  2  2)  28-C(  2  0  2)
  29-C(  3  2  0)  30-C(  0  3  2)  31-C(  2  0  3)  32-C(  1  1  1)
  33-C(  2  1  1)  34-C(  1  2  1)  35-C(  1  1  2)  36-C(  3  1  1)
  37-C(  1  3  1)  38-C(  1  1  3)  39-C(  4  1  1)  40-C(  1  4  1)
  41-C(  1  1  4)  42-C(  2  2  1)  43-C(  1  2  2)  44-C(  2  1  2)
  45-C(  3  2  1)  46-C(  1  3  2)  47-C(  2  1  3)  48-C(  2  3  1)
  49-C(  3  1  2)  50-C(  1  2  3)  51-C(  4  2  1)  52-C(  1  4  2)
  53-C(  2  1  4)  54-C(  2  4  1)  55-C(  4  1  2)  56-C(  1  2  4)
  57-C(  3  3  1)  58-C(  1  3  3)  59-C(  3  1  3)  60-C(  2  2  2)
  61-C(  3  2  2)  62-C(  2  3  2)  63-C(  2  2  3)

 GCALCO - MAX INDICES DIRECT LATTICE VECTOR    14    14    14
 NO.OF VECTORS CREATED 6999 STARS  522 RMAX   106.24116 BOHR
 TTTTTTTTTTTTTTTTTTTTTTTTTTTTTT gordsh1     TELAPSE    20870.57 TCPU    20782.83

 MATRIX SIZE: P(G) 3578932, F(G)  661520, P(G) IRR 1827550, F(G) IRR  671330
 MAX G-VECTOR INDEX FOR 1- AND 2-ELECTRON INTEGRALS1443

 TTTTTTTTTTTTTTTTTTTTTTTTTTTTTT INPUT       TELAPSE    20870.73 TCPU    20782.99
 TTTTTTTTTTTTTTTTTTTTTTTTTTTTTT SYMM        TELAPSE    20870.73 TCPU    20782.99

 ***** NEW REFERENCE GEOMETRY *****
 TTTTTTTTTTTTTTTTTTTTTTTTTTTTTT INT_SCREEN  TELAPSE    20870.73 TCPU    20782.99

 DFT PARAMETERS

     ATOM       ELECTRONS   NET CHARGE   R(ANGSTROM)
   1 241  NB     13.0000      0.0000     1.47000000
   3   8  O       8.0000      0.0000     0.74000000
   9   3  LI      3.0000      0.0000     1.57000000

 SIZE OF GRID=     218638
 TTTTTTTTTTTTTTTTTTTTTTTTTTTTTT MAKE_GRID2  TELAPSE    20872.78 TCPU    20785.03
 BECKE WEIGHT FUNCTION
 RADSAFE =     2.00
 TOLERANCES - DENSITY:10**- 6; POTENTIAL:10**- 9; GRID WGT:10**-14

 RADIAL INTEGRATION  - INTERVALS (POINTS,UPPER LIMIT):            1( 75,  4.0*R)

 ANGULAR INTEGRATION - INTERVALS (ACCURACY LEVEL [N. POINTS] UPPER LIMIT):
  1(  4[  86]   0.2)  2(  8[ 194]   0.5)  3( 12[ 350]   0.9)  4( 16[ 974]   3.5)
  5( 12[ 350]9999.0)
 TTTTTTTTTTTTTTTTTTTTTTTTTTTTTT INT_CALC    TELAPSE    20872.80 TCPU    20785.05
 CYCLE   0   ALPHA  214.990975  EPSILON    4.774312  DELTA    2.1499E+02
 TTTTTTTTTTTTTTTTTTTTTTTTTTTTTT MOQGAD      TELAPSE    21369.88 TCPU    21280.42
 TTTTTTTTTTTTTTTTTTTTTTTTTTTTTT CP_MONMON   TELAPSE    21370.20 TCPU    21280.74
 DIIS TEST: 0.47957E+02 AT CPHF  CYCLE   1 - MIX    0 %
 CYCLE   1   ALPHA  136.134997  EPSILON    3.389942  DELTA   -7.8856E+01
 TTTTTTTTTTTTTTTTTTTTTTTTTTTTTT MOQGAD      TELAPSE    21867.70 TCPU    21776.50
 TTTTTTTTTTTTTTTTTTTTTTTTTTTTTT CP_MONMON   TELAPSE    21868.02 TCPU    21776.81
 DIIS TEST: 0.40899E+03 AT CPHF  CYCLE   2 - DIIS ACTIVE - HISTORY:     2 CYCLES
 CYCLE   2   ALPHA  206.820585  EPSILON    4.630875  DELTA    7.0686E+01
 TTTTTTTTTTTTTTTTTTTTTTTTTTTTTT MOQGAD      TELAPSE    22365.09 TCPU    22272.09
 TTTTTTTTTTTTTTTTTTTTTTTTTTTTTT CP_MONMON   TELAPSE    22365.40 TCPU    22272.40
 DIIS TEST: 0.53107E+00 AT CPHF  CYCLE   3 - DIIS ACTIVE - HISTORY:     3 CYCLES
 CYCLE   3   ALPHA  210.733798  EPSILON    4.699574  DELTA    3.9132E+00
 TTTTTTTTTTTTTTTTTTTTTTTTTTTTTT MOQGAD      TELAPSE    22862.53 TCPU    22767.70
 TTTTTTTTTTTTTTTTTTTTTTTTTTTTTT CP_MONMON   TELAPSE    22862.83 TCPU    22768.01
 DIIS TEST: 0.52220E+00 AT CPHF  CYCLE   4 - DIIS ACTIVE - HISTORY:     4 CYCLES
 CYCLE   4   ALPHA  212.018269  EPSILON    4.722124  DELTA    1.2845E+00
 TTTTTTTTTTTTTTTTTTTTTTTTTTTTTT MOQGAD      TELAPSE    23360.28 TCPU    23263.58
 TTTTTTTTTTTTTTTTTTTTTTTTTTTTTT CP_MONMON   TELAPSE    23360.58 TCPU    23263.89
 DIIS TEST: 0.28190E-01 AT CPHF  CYCLE   5 - DIIS ACTIVE - HISTORY:     5 CYCLES
 CYCLE   5   ALPHA  212.788614  EPSILON    4.735648  DELTA    7.7034E-01
 TTTTTTTTTTTTTTTTTTTTTTTTTTTTTT MOQGAD      TELAPSE    23857.80 TCPU    23759.34
 TTTTTTTTTTTTTTTTTTTTTTTTTTTTTT CP_MONMON   TELAPSE    23858.11 TCPU    23759.65
 DIIS TEST: 0.15647E-02 AT CPHF  CYCLE   6 - DIIS ACTIVE - HISTORY:     6 CYCLES
 CYCLE   6   ALPHA  212.905797  EPSILON    4.737705  DELTA    1.1718E-01
 TTTTTTTTTTTTTTTTTTTTTTTTTTTTTT MOQGAD      TELAPSE    24355.45 TCPU    24255.17
 TTTTTTTTTTTTTTTTTTTTTTTTTTTTTT CP_MONMON   TELAPSE    24355.75 TCPU    24255.47
 DIIS TEST: 0.32277E-04 AT CPHF  CYCLE   7 - DIIS ACTIVE - HISTORY:     7 CYCLES
 CYCLE   7   ALPHA  212.921754  EPSILON    4.737985  DELTA    1.5956E-02
 TTTTTTTTTTTTTTTTTTTTTTTTTTTTTT MOQGAD      TELAPSE    24853.45 TCPU    24751.09
 TTTTTTTTTTTTTTTTTTTTTTTTTTTTTT CP_MONMON   TELAPSE    24853.75 TCPU    24751.39
 DIIS TEST: 0.28894E-05 AT CPHF  CYCLE   8 - DIIS ACTIVE - HISTORY:     8 CYCLES
 CYCLE   8   ALPHA  212.927323  EPSILON    4.738083  DELTA    5.5691E-03
 TTTTTTTTTTTTTTTTTTTTTTTTTTTTTT MOQGAD      TELAPSE    25351.74 TCPU    25247.43
 TTTTTTTTTTTTTTTTTTTTTTTTTTTTTT CP_MONMON   TELAPSE    25352.04 TCPU    25247.73
 DIIS TEST: 0.30843E-06 AT CPHF  CYCLE   9 - DIIS ACTIVE - HISTORY:     9 CYCLES
 CYCLE   9   ALPHA  212.928934  EPSILON    4.738111  DELTA    1.6112E-03
 TTTTTTTTTTTTTTTTTTTTTTTTTTTTTT MOQGAD      TELAPSE    25849.59 TCPU    25743.44
 TTTTTTTTTTTTTTTTTTTTTTTTTTTTTT CP_MONMON   TELAPSE    25849.89 TCPU    25743.74
 DIIS TEST: 0.13254E-08 AT CPHF  CYCLE  10 - DIIS ACTIVE - HISTORY:    10 CYCLES
 CYCLE  10   ALPHA  212.928863  EPSILON    4.738110  DELTA   -7.0558E-05
 TTTTTTTTTTTTTTTTTTTTTTTTTTTTTT CP_SC       TELAPSE    25851.65 TCPU    25744.71

 *******************************************************************************

 ELECTRIC FIELD APPLIED ALONG CARTESIAN DIRECTION Z

 *******************************************************************************
 THE NUMBER OF SYMMETRY OPERATORS HAS BEEN REDUCED FROM  6 TO  1

 NEW GRID IN RECIPROCAL SPACE
 *******************************************************************************
 POINTS IN THE IBZ                  63 SHRINKING FACTORS               5  5  5
 *******************************************************************************
 *** K POINTS COORDINATES (OBLIQUE COORDINATES IN UNITS OF SHRINK FAC. )
   1-R(  0  0  0)   2-C(  1  0  0)   3-C(  0  1  0)   4-C(  0  0  1)
   5-C(  2  0  0)   6-C(  0  2  0)   7-C(  0  0  2)   8-C(  1  1  0)
   9-C(  0  1  1)  10-C(  1  0  1)  11-C(  2  1  0)  12-C(  0  2  1)
  13-C(  1  0  2)  14-C(  1  2  0)  15-C(  2  0  1)  16-C(  0  1  2)
  17-C(  3  1  0)  18-C(  0  3  1)  19-C(  1  0  3)  20-C(  1  3  0)
  21-C(  3  0  1)  22-C(  0  1  3)  23-C(  4  1  0)  24-C(  0  4  1)
  25-C(  1  0  4)  26-C(  2  2  0)  27-C(  0  2  2)  28-C(  2  0  2)
  29-C(  3  2  0)  30-C(  0  3  2)  31-C(  2  0  3)  32-C(  1  1  1)
  33-C(  2  1  1)  34-C(  1  2  1)  35-C(  1  1  2)  36-C(  3  1  1)
  37-C(  1  3  1)  38-C(  1  1  3)  39-C(  4  1  1)  40-C(  1  4  1)
  41-C(  1  1  4)  42-C(  2  2  1)  43-C(  1  2  2)  44-C(  2  1  2)
  45-C(  3  2  1)  46-C(  1  3  2)  47-C(  2  1  3)  48-C(  2  3  1)
  49-C(  3  1  2)  50-C(  1  2  3)  51-C(  4  2  1)  52-C(  1  4  2)
  53-C(  2  1  4)  54-C(  2  4  1)  55-C(  4  1  2)  56-C(  1  2  4)
  57-C(  3  3  1)  58-C(  1  3  3)  59-C(  3  1  3)  60-C(  2  2  2)
  61-C(  3  2  2)  62-C(  2  3  2)  63-C(  2  2  3)

 GCALCO - MAX INDICES DIRECT LATTICE VECTOR    14    14    14
 NO.OF VECTORS CREATED 6999 STARS  522 RMAX   106.24116 BOHR
 TTTTTTTTTTTTTTTTTTTTTTTTTTTTTT gordsh1     TELAPSE    25852.80 TCPU    25745.70

 MATRIX SIZE: P(G) 3578932, F(G)  661520, P(G) IRR 1827550, F(G) IRR  671330
 MAX G-VECTOR INDEX FOR 1- AND 2-ELECTRON INTEGRALS1443

 TTTTTTTTTTTTTTTTTTTTTTTTTTTTTT INPUT       TELAPSE    25852.95 TCPU    25745.84
 TTTTTTTTTTTTTTTTTTTTTTTTTTTTTT SYMM        TELAPSE    25852.95 TCPU    25745.84

 ***** NEW REFERENCE GEOMETRY *****
 TTTTTTTTTTTTTTTTTTTTTTTTTTTTTT INT_SCREEN  TELAPSE    25852.95 TCPU    25745.85

 DFT PARAMETERS

     ATOM       ELECTRONS   NET CHARGE   R(ANGSTROM)
   1 241  NB     13.0000      0.0000     1.47000000
   3   8  O       8.0000      0.0000     0.74000000
   9   3  LI      3.0000      0.0000     1.57000000

 SIZE OF GRID=     218638
 TTTTTTTTTTTTTTTTTTTTTTTTTTTTTT MAKE_GRID2  TELAPSE    25854.97 TCPU    25747.86
 BECKE WEIGHT FUNCTION
 RADSAFE =     2.00
 TOLERANCES - DENSITY:10**- 6; POTENTIAL:10**- 9; GRID WGT:10**-14

 RADIAL INTEGRATION  - INTERVALS (POINTS,UPPER LIMIT):            1( 75,  4.0*R)

 ANGULAR INTEGRATION - INTERVALS (ACCURACY LEVEL [N. POINTS] UPPER LIMIT):
  1(  4[  86]   0.2)  2(  8[ 194]   0.5)  3( 12[ 350]   0.9)  4( 16[ 974]   3.5)
  5( 12[ 350]9999.0)
 TTTTTTTTTTTTTTTTTTTTTTTTTTTTTT INT_CALC    TELAPSE    25854.99 TCPU    25747.88
 CYCLE   0   ALPHA  160.882622  EPSILON    3.824403  DELTA    1.6088E+02
 TTTTTTTTTTTTTTTTTTTTTTTTTTTTTT MOQGAD      TELAPSE    26352.19 TCPU    26243.62
 TTTTTTTTTTTTTTTTTTTTTTTTTTTTTT CP_MONMON   TELAPSE    26352.50 TCPU    26243.93
 DIIS TEST: 0.90261E+01 AT CPHF  CYCLE   1 - MIX    0 %
 CYCLE   1   ALPHA  157.994665  EPSILON    3.773703  DELTA   -2.8880E+00
 TTTTTTTTTTTTTTTTTTTTTTTTTTTTTT MOQGAD      TELAPSE    26849.55 TCPU    26739.42
 TTTTTTTTTTTTTTTTTTTTTTTTTTTTTT CP_MONMON   TELAPSE    26849.86 TCPU    26739.73
 DIIS TEST: 0.56685E+02 AT CPHF  CYCLE   2 - DIIS ACTIVE - HISTORY:     2 CYCLES
 CYCLE   2   ALPHA  171.100836  EPSILON    4.003791  DELTA    1.3106E+01
 TTTTTTTTTTTTTTTTTTTTTTTTTTTTTT MOQGAD      TELAPSE    27347.04 TCPU    27235.34
 TTTTTTTTTTTTTTTTTTTTTTTTTTTTTT CP_MONMON   TELAPSE    27347.34 TCPU    27235.64
 DIIS TEST: 0.76904E+00 AT CPHF  CYCLE   3 - DIIS ACTIVE - HISTORY:     3 CYCLES
 CYCLE   3   ALPHA  173.699502  EPSILON    4.049412  DELTA    2.5987E+00
 TTTTTTTTTTTTTTTTTTTTTTTTTTTTTT MOQGAD      TELAPSE    27844.80 TCPU    27731.54
 TTTTTTTTTTTTTTTTTTTTTTTTTTTTTT CP_MONMON   TELAPSE    27845.11 TCPU    27731.85
 DIIS TEST: 0.13596E-01 AT CPHF  CYCLE   4 - DIIS ACTIVE - HISTORY:     4 CYCLES
 CYCLE   4   ALPHA  174.671965  EPSILON    4.066484  DELTA    9.7246E-01
 TTTTTTTTTTTTTTTTTTTTTTTTTTTTTT MOQGAD      TELAPSE    28342.30 TCPU    28227.12
 TTTTTTTTTTTTTTTTTTTTTTTTTTTTTT CP_MONMON   TELAPSE    28342.61 TCPU    28227.43
 DIIS TEST: 0.78438E-03 AT CPHF  CYCLE   5 - DIIS ACTIVE - HISTORY:     5 CYCLES
 CYCLE   5   ALPHA  174.850715  EPSILON    4.069622  DELTA    1.7875E-01
 TTTTTTTTTTTTTTTTTTTTTTTTTTTTTT MOQGAD      TELAPSE    28839.73 TCPU    28722.62
 TTTTTTTTTTTTTTTTTTTTTTTTTTTTTT CP_MONMON   TELAPSE    28840.04 TCPU    28722.92
 DIIS TEST: 0.23685E-04 AT CPHF  CYCLE   6 - DIIS ACTIVE - HISTORY:     6 CYCLES
 CYCLE   6   ALPHA  174.879940  EPSILON    4.070135  DELTA    2.9225E-02
 TTTTTTTTTTTTTTTTTTTTTTTTTTTTTT MOQGAD      TELAPSE    29337.44 TCPU    29218.46
 TTTTTTTTTTTTTTTTTTTTTTTTTTTTTT CP_MONMON   TELAPSE    29337.74 TCPU    29218.76
 DIIS TEST: 0.55955E-05 AT CPHF  CYCLE   7 - DIIS ACTIVE - HISTORY:     7 CYCLES
 CYCLE   7   ALPHA  174.886282  EPSILON    4.070247  DELTA    6.3421E-03
 TTTTTTTTTTTTTTTTTTTTTTTTTTTTTT MOQGAD      TELAPSE    29835.86 TCPU    29714.93
 TTTTTTTTTTTTTTTTTTTTTTTTTTTTTT CP_MONMON   TELAPSE    29836.17 TCPU    29715.24
 DIIS TEST: 0.75845E-05 AT CPHF  CYCLE   8 - DIIS ACTIVE - HISTORY:     8 CYCLES
 CYCLE   8   ALPHA  174.887104  EPSILON    4.070261  DELTA    8.2200E-04
 TTTTTTTTTTTTTTTTTTTTTTTTTTTTTT MOQGAD      TELAPSE    30333.36 TCPU    30210.45
 TTTTTTTTTTTTTTTTTTTTTTTTTTTTTT CP_MONMON   TELAPSE    30333.67 TCPU    30210.76
 DIIS TEST: 0.55973E-07 AT CPHF  CYCLE   9 - DIIS ACTIVE - HISTORY:     9 CYCLES
 CYCLE   9   ALPHA  174.887271  EPSILON    4.070264  DELTA    1.6684E-04
 TTTTTTTTTTTTTTTTTTTTTTTTTTTTTT MOQGAD      TELAPSE    30830.84 TCPU    30705.94
 TTTTTTTTTTTTTTTTTTTTTTTTTTTTTT CP_MONMON   TELAPSE    30831.15 TCPU    30706.25
 DIIS TEST: 0.65982E-08 AT CPHF  CYCLE  10 - DIIS ACTIVE - HISTORY:    10 CYCLES
 CYCLE  10   ALPHA  174.887243  EPSILON    4.070263  DELTA   -2.8171E-05
 TTTTTTTTTTTTTTTTTTTTTTTTTTTTTT CP_SC       TELAPSE    30832.77 TCPU    30706.90

 *******************************************************************************

 POLARIZABILITY (ALPHA), DIELECTRIC (EPSILON) AND FIRST-ORDER ELECTRIC
 SUSCEPTIBILITY (CHI(1)) TENSORS (INDEPENDENT COMPONENTS)

  FR.(eV) COMP.   ALPHA(Re,Im)           EPSILON(Re,Im)                CHI(1)
  1.165   XX     212.9289       0.2858       4.7381       0.0050       3.7381
  1.165   XY      -0.0002       0.0000      -0.0000       0.0000      -0.0000
  1.165   XZ      -0.0000      -0.0001      -0.0000      -0.0000      -0.0000
[...]
  5( 12[ 350]9999.0)
 TTTTTTTTTTTTTTTTTTTTTTTTTTTTTT INT_CALC    TELAPSE    36336.06 TCPU    36186.17
 CYCLE   0   ALPHA  230.047106  EPSILON    5.038632  DELTA    2.3005E+02
 TTTTTTTTTTTTTTTTTTTTTTTTTTTTTT MOQGAD      TELAPSE    36834.57 TCPU    36682.90
 TTTTTTTTTTTTTTTTTTTTTTTTTTTTTT CP_MONMON   TELAPSE    36834.95 TCPU    36683.28
 DIIS TEST: 0.55916E+02 AT CPHF  CYCLE   1 - MIX    0 %
 CYCLE   1   ALPHA  141.934119  EPSILON    3.491749  DELTA   -8.8113E+01
 TTTTTTTTTTTTTTTTTTTTTTTTTTTTTT MOQGAD      TELAPSE    37332.50 TCPU    37178.83
 TTTTTTTTTTTTTTTTTTTTTTTTTTTTTT CP_MONMON   TELAPSE    37332.81 TCPU    37179.14
 DIIS TEST: 0.50940E+03 AT CPHF  CYCLE   2 - DIIS ACTIVE - HISTORY:     2 CYCLES
 CYCLE   2   ALPHA  224.968015  EPSILON    4.949465  DELTA    8.3034E+01
 TTTTTTTTTTTTTTTTTTTTTTTTTTTTTT MOQGAD      TELAPSE    37830.95 TCPU    37675.35
 TTTTTTTTTTTTTTTTTTTTTTTTTTTTTT CP_MONMON   TELAPSE    37831.26 TCPU    37675.65
 DIIS TEST: 0.59742E+00 AT CPHF  CYCLE   3 - DIIS ACTIVE - HISTORY:     3 CYCLES
 CYCLE   3   ALPHA  230.133732  EPSILON    5.040153  DELTA    5.1657E+00
 TTTTTTTTTTTTTTTTTTTTTTTTTTTTTT MOQGAD      TELAPSE    38329.92 TCPU    38171.81
 TTTTTTTTTTTTTTTTTTTTTTTTTTTTTT CP_MONMON   TELAPSE    38330.23 TCPU    38172.11
 DIIS TEST: 0.70076E+00 AT CPHF  CYCLE   4 - DIIS ACTIVE - HISTORY:     4 CYCLES
 CYCLE   4   ALPHA  232.144156  EPSILON    5.075447  DELTA    2.0104E+00
 TTTTTTTTTTTTTTTTTTTTTTTTTTTTTT MOQGAD      TELAPSE    38829.95 TCPU    38667.55
 TTTTTTTTTTTTTTTTTTTTTTTTTTTTTT CP_MONMON   TELAPSE    38830.26 TCPU    38667.86
 DIIS TEST: 0.38853E-01 AT CPHF  CYCLE   5 - DIIS ACTIVE - HISTORY:     5 CYCLES
 CYCLE   5   ALPHA  233.551864  EPSILON    5.100160  DELTA    1.4077E+00
 TTTTTTTTTTTTTTTTTTTTTTTTTTTTTT MOQGAD      TELAPSE    39328.06 TCPU    39163.67
 TTTTTTTTTTTTTTTTTTTTTTTTTTTTTT CP_MONMON   TELAPSE    39328.37 TCPU    39163.97
 DIIS TEST: 0.32994E-02 AT CPHF  CYCLE   6 - DIIS ACTIVE - HISTORY:     6 CYCLES
 CYCLE   6   ALPHA  233.865838  EPSILON    5.105673  DELTA    3.1397E-01
 TTTTTTTTTTTTTTTTTTTTTTTTTTTTTT MOQGAD      TELAPSE    39825.95 TCPU    39659.60
 TTTTTTTTTTTTTTTTTTTTTTTTTTTTTT CP_MONMON   TELAPSE    39826.27 TCPU    39659.91
 DIIS TEST: 0.52127E-04 AT CPHF  CYCLE   7 - DIIS ACTIVE - HISTORY:     7 CYCLES
 CYCLE   7   ALPHA  233.922725  EPSILON    5.106671  DELTA    5.6887E-02
 TTTTTTTTTTTTTTTTTTTTTTTTTTTTTT MOQGAD      TELAPSE    40324.32 TCPU    40155.75
 TTTTTTTTTTTTTTTTTTTTTTTTTTTTTT CP_MONMON   TELAPSE    40324.63 TCPU    40156.06
 DIIS TEST: 0.10506E-04 AT CPHF  CYCLE   8 - DIIS ACTIVE - HISTORY:     8 CYCLES
 CYCLE   8   ALPHA  233.936564  EPSILON    5.106914  DELTA    1.3839E-02
 TTTTTTTTTTTTTTTTTTTTTTTTTTTTTT MOQGAD      TELAPSE    40822.51 TCPU    40651.56
 TTTTTTTTTTTTTTTTTTTTTTTTTTTTTT CP_MONMON   TELAPSE    40822.81 TCPU    40651.86
 DIIS TEST: 0.12761E-05 AT CPHF  CYCLE   9 - DIIS ACTIVE - HISTORY:     9 CYCLES
 CYCLE   9   ALPHA  233.938321  EPSILON    5.106945  DELTA    1.7578E-03
 TTTTTTTTTTTTTTTTTTTTTTTTTTTTTT MOQGAD      TELAPSE    41320.54 TCPU    41147.61
 TTTTTTTTTTTTTTTTTTTTTTTTTTTTTT CP_MONMON   TELAPSE    41320.84 TCPU    41147.91
 DIIS TEST: 0.72618E-08 AT CPHF  CYCLE  10 - DIIS ACTIVE - HISTORY:    10 CYCLES
 CYCLE  10   ALPHA  233.937967  EPSILON    5.106939  DELTA   -3.5468E-04
 TTTTTTTTTTTTTTTTTTTTTTTTTTTTTT MOQGAD      TELAPSE    41818.42 TCPU    41643.57
 TTTTTTTTTTTTTTTTTTTTTTTTTTTTTT CP_MONMON   TELAPSE    41818.73 TCPU    41643.88
 DIIS TEST: 0.65712E-09 AT CPHF  CYCLE  11 - DIIS ACTIVE - HISTORY:    11 CYCLES
 CYCLE  11   ALPHA  233.937903  EPSILON    5.106938  DELTA   -6.3343E-05
 TTTTTTTTTTTTTTTTTTTTTTTTTTTTTT CP_SC       TELAPSE    41827.31 TCPU    41651.21

 *******************************************************************************

 ELECTRIC FIELD APPLIED ALONG CARTESIAN DIRECTION Z

 *******************************************************************************
 THE NUMBER OF SYMMETRY OPERATORS HAS BEEN REDUCED FROM  6 TO  1

 NEW GRID IN RECIPROCAL SPACE
 *******************************************************************************
 POINTS IN THE IBZ                  63 SHRINKING FACTORS               5  5  5
 *******************************************************************************
 *** K POINTS COORDINATES (OBLIQUE COORDINATES IN UNITS OF SHRINK FAC. )
   1-R(  0  0  0)   2-C(  1  0  0)   3-C(  0  1  0)   4-C(  0  0  1)
   5-C(  2  0  0)   6-C(  0  2  0)   7-C(  0  0  2)   8-C(  1  1  0)
   9-C(  0  1  1)  10-C(  1  0  1)  11-C(  2  1  0)  12-C(  0  2  1)
  13-C(  1  0  2)  14-C(  1  2  0)  15-C(  2  0  1)  16-C(  0  1  2)
  17-C(  3  1  0)  18-C(  0  3  1)  19-C(  1  0  3)  20-C(  1  3  0)
  21-C(  3  0  1)  22-C(  0  1  3)  23-C(  4  1  0)  24-C(  0  4  1)
  25-C(  1  0  4)  26-C(  2  2  0)  27-C(  0  2  2)  28-C(  2  0  2)
  29-C(  3  2  0)  30-C(  0  3  2)  31-C(  2  0  3)  32-C(  1  1  1)
  33-C(  2  1  1)  34-C(  1  2  1)  35-C(  1  1  2)  36-C(  3  1  1)
  37-C(  1  3  1)  38-C(  1  1  3)  39-C(  4  1  1)  40-C(  1  4  1)
  41-C(  1  1  4)  42-C(  2  2  1)  43-C(  1  2  2)  44-C(  2  1  2)
  45-C(  3  2  1)  46-C(  1  3  2)  47-C(  2  1  3)  48-C(  2  3  1)
  49-C(  3  1  2)  50-C(  1  2  3)  51-C(  4  2  1)  52-C(  1  4  2)
  53-C(  2  1  4)  54-C(  2  4  1)  55-C(  4  1  2)  56-C(  1  2  4)
  57-C(  3  3  1)  58-C(  1  3  3)  59-C(  3  1  3)  60-C(  2  2  2)
  61-C(  3  2  2)  62-C(  2  3  2)  63-C(  2  2  3)

 GCALCO - MAX INDICES DIRECT LATTICE VECTOR    14    14    14
 NO.OF VECTORS CREATED 6999 STARS  522 RMAX   106.24116 BOHR
 TTTTTTTTTTTTTTTTTTTTTTTTTTTTTT gordsh1     TELAPSE    41829.15 TCPU    41652.33

 MATRIX SIZE: P(G) 3578932, F(G)  661520, P(G) IRR 1827550, F(G) IRR  671330
 MAX G-VECTOR INDEX FOR 1- AND 2-ELECTRON INTEGRALS1443

 TTTTTTTTTTTTTTTTTTTTTTTTTTTTTT INPUT       TELAPSE    41829.43 TCPU    41652.61
 TTTTTTTTTTTTTTTTTTTTTTTTTTTTTT SYMM        TELAPSE    41829.43 TCPU    41652.61

 ***** NEW REFERENCE GEOMETRY *****
 TTTTTTTTTTTTTTTTTTTTTTTTTTTTTT INT_SCREEN  TELAPSE    41829.43 TCPU    41652.61

 DFT PARAMETERS

     ATOM       ELECTRONS   NET CHARGE   R(ANGSTROM)
   1 241  NB     13.0000      0.0000     1.47000000
   3   8  O       8.0000      0.0000     0.74000000
   9   3  LI      3.0000      0.0000     1.57000000

 SIZE OF GRID=     218638
 TTTTTTTTTTTTTTTTTTTTTTTTTTTTTT MAKE_GRID2  TELAPSE    41831.46 TCPU    41654.63
 BECKE WEIGHT FUNCTION
 RADSAFE =     2.00
 TOLERANCES - DENSITY:10**- 6; POTENTIAL:10**- 9; GRID WGT:10**-14

 RADIAL INTEGRATION  - INTERVALS (POINTS,UPPER LIMIT):            1( 75,  4.0*R)

 ANGULAR INTEGRATION - INTERVALS (ACCURACY LEVEL [N. POINTS] UPPER LIMIT):
  1(  4[  86]   0.2)  2(  8[ 194]   0.5)  3( 12[ 350]   0.9)  4( 16[ 974]   3.5)
  5( 12[ 350]9999.0)
 TTTTTTTTTTTTTTTTTTTTTTTTTTTTTT INT_CALC    TELAPSE    41831.48 TCPU    41654.64
 CYCLE   0   ALPHA  170.227745  EPSILON    3.988463  DELTA    1.7023E+02
 TTTTTTTTTTTTTTTTTTTTTTTTTTTTTT MOQGAD      TELAPSE    42330.19 TCPU    42151.87
 TTTTTTTTTTTTTTTTTTTTTTTTTTTTTT CP_MONMON   TELAPSE    42331.14 TCPU    42152.77
 DIIS TEST: 0.10564E+02 AT CPHF  CYCLE   1 - MIX    0 %
 CYCLE   1   ALPHA  168.686984  EPSILON    3.961414  DELTA   -1.5408E+00
 TTTTTTTTTTTTTTTTTTTTTTTTTTTTTT MOQGAD      TELAPSE    42828.65 TCPU    42648.73
 TTTTTTTTTTTTTTTTTTTTTTTTTTTTTT CP_MONMON   TELAPSE    42828.98 TCPU    42649.05
 DIIS TEST: 0.73449E+02 AT CPHF  CYCLE   2 - DIIS ACTIVE - HISTORY:     2 CYCLES
 CYCLE   2   ALPHA  184.282432  EPSILON    4.235202  DELTA    1.5595E+01
 TTTTTTTTTTTTTTTTTTTTTTTTTTTTTT MOQGAD      TELAPSE    43326.57 TCPU    43145.00
 TTTTTTTTTTTTTTTTTTTTTTTTTTTTTT CP_MONMON   TELAPSE    43326.88 TCPU    43145.30
 DIIS TEST: 0.82439E+00 AT CPHF  CYCLE   3 - DIIS ACTIVE - HISTORY:     3 CYCLES
 CYCLE   3   ALPHA  187.795404  EPSILON    4.296875  DELTA    3.5130E+00
 TTTTTTTTTTTTTTTTTTTTTTTTTTTTTT MOQGAD      TELAPSE    43824.31 TCPU    43641.12
 TTTTTTTTTTTTTTTTTTTTTTTTTTTTTT CP_MONMON   TELAPSE    43824.62 TCPU    43641.43
 DIIS TEST: 0.22563E-01 AT CPHF  CYCLE   4 - DIIS ACTIVE - HISTORY:     4 CYCLES
 CYCLE   4   ALPHA  189.483148  EPSILON    4.326504  DELTA    1.6877E+00
 TTTTTTTTTTTTTTTTTTTTTTTTTTTTTT MOQGAD      TELAPSE    44322.14 TCPU    44137.22
 TTTTTTTTTTTTTTTTTTTTTTTTTTTTTT CP_MONMON   TELAPSE    44322.45 TCPU    44137.53
 DIIS TEST: 0.14223E-02 AT CPHF  CYCLE   5 - DIIS ACTIVE - HISTORY:     5 CYCLES
 CYCLE   5   ALPHA  189.841300  EPSILON    4.332792  DELTA    3.5815E-01
 TTTTTTTTTTTTTTTTTTTTTTTTTTTTTT MOQGAD      TELAPSE    44820.17 TCPU    44633.38
 TTTTTTTTTTTTTTTTTTTTTTTTTTTTTT CP_MONMON   TELAPSE    44820.48 TCPU    44633.69
 DIIS TEST: 0.47396E-04 AT CPHF  CYCLE   6 - DIIS ACTIVE - HISTORY:     6 CYCLES
 CYCLE   6   ALPHA  189.909241  EPSILON    4.333985  DELTA    6.7941E-02
 TTTTTTTTTTTTTTTTTTTTTTTTTTTTTT MOQGAD      TELAPSE    45318.15 TCPU    45129.50
 TTTTTTTTTTTTTTTTTTTTTTTTTTTTTT CP_MONMON   TELAPSE    45318.45 TCPU    45129.81
 DIIS TEST: 0.10418E-03 AT CPHF  CYCLE   7 - DIIS ACTIVE - HISTORY:     7 CYCLES
 CYCLE   7   ALPHA  189.921111  EPSILON    4.334193  DELTA    1.1870E-02
 TTTTTTTTTTTTTTTTTTTTTTTTTTTTTT MOQGAD      TELAPSE    45816.31 TCPU    45625.93
 TTTTTTTTTTTTTTTTTTTTTTTTTTTTTT CP_MONMON   TELAPSE    45816.62 TCPU    45626.23
 DIIS TEST: 0.29405E-04 AT CPHF  CYCLE   8 - DIIS ACTIVE - HISTORY:     8 CYCLES
 CYCLE   8   ALPHA  189.929359  EPSILON    4.334338  DELTA    8.2484E-03
 TTTTTTTTTTTTTTTTTTTTTTTTTTTTTT MOQGAD      TELAPSE    46316.17 TCPU    46123.61
 TTTTTTTTTTTTTTTTTTTTTTTTTTTTTT CP_MONMON   TELAPSE    46316.49 TCPU    46123.93
 DIIS TEST: 0.15884E-06 AT CPHF  CYCLE   9 - DIIS ACTIVE - HISTORY:     9 CYCLES
 CYCLE   9   ALPHA  189.929399  EPSILON    4.334339  DELTA    3.9635E-05
 TTTTTTTTTTTTTTTTTTTTTTTTTTTTTT CP_SC       TELAPSE    46318.28 TCPU    46124.62

 *******************************************************************************

 POLARIZABILITY (ALPHA), DIELECTRIC (EPSILON) AND FIRST-ORDER ELECTRIC
 SUSCEPTIBILITY (CHI(1)) TENSORS (INDEPENDENT COMPONENTS)

  FR.(eV) COMP.   ALPHA(Re,Im)           EPSILON(Re,Im)                CHI(1)
  2.331   XX     233.9380       0.7508       5.1069       0.0132       4.1069
  2.331   XY       0.0000       0.0000       0.0000       0.0000       0.0000
  2.331   XZ      -0.0000       0.0004      -0.0000       0.0000      -0.0000
  2.331   YY     233.9379       0.7508       5.1069       0.0132       4.1069
  2.331   YZ      -0.0000       0.0000      -0.0000       0.0000      -0.0000
  2.331   ZZ     189.9294       0.5299       4.3343       0.0093       3.3343

 DIELECTRIC TENSOR

 TENSOR IN PRINCIPAL AXES SYSTEM
 AA  5.106939E+00 BB  5.106938E+00 CC  4.334339E+00

 REFRACTIVE INDICES 
 AA  2.081907E+00 BB  2.259853E+00 CC  2.259854E+00

 OPTICALLY ANISOTROPIC - UNIAXIAL CRYSTAL

 BIREFRINGENCE =  0.1779 (NEGATIVE) - OBLATE OPTICAL ELLIPSOID

 EPSILON=N**2=1+CHI(1)=1+ALPHA*4*PI/V,   4*PI/V=   0.01756 BOHR**(-3)
 ALPHA IN BOHR**3; EPSILON AND CHI(1) ARE DIMENSIONLESS.
 *******************************************************************************


  Pockels Effect beta(-omega;omega,0) with omega=   1.1653 eV


 SIZE OF GRID=     218638
 TTTTTTTTTTTTTTTTTTTTTTTTTTTTTT MAKE_GRID2  TELAPSE    46322.66 TCPU    46128.86
 BECKE WEIGHT FUNCTION
 RADSAFE =     2.00
 TOLERANCES - DENSITY:10**- 6; POTENTIAL:10**- 9; GRID WGT:10**-14

 RADIAL INTEGRATION  - INTERVALS (POINTS,UPPER LIMIT):            1( 75,  4.0*R)

 ANGULAR INTEGRATION - INTERVALS (ACCURACY LEVEL [N. POINTS] UPPER LIMIT):
  1(  4[  86]   0.2)  2(  8[ 194]   0.5)  3( 12[ 350]   0.9)  4( 16[ 974]   3.5)
  5( 12[ 350]9999.0)

 SIZE OF GRID=     218638
 TTTTTTTTTTTTTTTTTTTTTTTTTTTTTT MAKE_GRID2  TELAPSE    46324.89 TCPU    46131.00
 BECKE WEIGHT FUNCTION
 RADSAFE =     2.00
 TOLERANCES - DENSITY:10**- 6; POTENTIAL:10**- 9; GRID WGT:10**-14

 RADIAL INTEGRATION  - INTERVALS (POINTS,UPPER LIMIT):            1( 75,  4.0*R)

 ANGULAR INTEGRATION - INTERVALS (ACCURACY LEVEL [N. POINTS] UPPER LIMIT):
  1(  4[  86]   0.2)  2(  8[ 194]   0.5)  3( 12[ 350]   0.9)  4( 16[ 974]   3.5)
  5( 12[ 350]9999.0)
 *******************************************************************************

 DC-POCKELS AND SECOND ELECTRIC SUSCEPTIBILITY (CHI(2))
 TENSORS (INDEPENDENT COMPONENTS)

BETA                                         CHI(2)       d(MKS)       d(cgs)
 *******************************************************************************

     XXX         -0.5697E+02  -0.5001E+00  -0.4863E+00  -0.1160E-01
     XXY         -0.3967E+01  -0.3482E-01  -0.3386E-01  -0.8077E-03
     XXZ          0.8260E+03   0.7250E+01   0.7050E+01   0.1682E+00
     XYX         -0.3966E+01  -0.3481E-01  -0.3385E-01  -0.8076E-03
     XYY          0.5697E+02   0.5001E+00   0.4863E+00   0.1160E-01
     XYZ          0.5572E+00   0.4891E-02   0.4756E-02   0.1135E-03
     XZX          0.8118E+03   0.7126E+01   0.6929E+01   0.1653E+00
     XZY          0.6871E+00   0.6031E-02   0.5865E-02   0.1399E-03
     XZZ         -0.3038E-02  -0.2667E-04  -0.2593E-04  -0.6186E-06
     YXX         -0.3967E+01  -0.3482E-01  -0.3386E-01  -0.8077E-03
     YXY          0.5697E+02   0.5001E+00   0.4863E+00   0.1160E-01
     YXZ         -0.5554E+00  -0.4875E-02  -0.4740E-02  -0.1131E-03
     YYX          0.5697E+02   0.5001E+00   0.4863E+00   0.1160E-01
     YYY          0.3970E+01   0.3485E-01   0.3389E-01   0.8084E-03
     YYZ          0.8260E+03   0.7250E+01   0.7050E+01   0.1682E+00
     YZX         -0.7065E+00  -0.6202E-02  -0.6030E-02  -0.1439E-03
     YZY          0.8118E+03   0.7125E+01   0.6928E+01   0.1653E+00
     YZZ         -0.5005E-02  -0.4393E-04  -0.4272E-04  -0.1019E-05
     ZXX          0.8117E+03   0.7125E+01   0.6928E+01   0.1653E+00
     ZXY          0.1268E+00   0.1113E-02   0.1082E-02   0.2582E-04
     ZXZ         -0.2877E-02  -0.2525E-04  -0.2455E-04  -0.5858E-06
     ZYX         -0.1462E+00  -0.1284E-02  -0.1248E-02  -0.2978E-04
     ZYY          0.8117E+03   0.7125E+01   0.6928E+01   0.1653E+00
     ZYZ         -0.4877E-02  -0.4281E-04  -0.4163E-04  -0.9931E-06
     ZZX         -0.1289E-01  -0.1132E-03  -0.1100E-03  -0.2625E-05
     ZZY         -0.2157E-01  -0.1893E-03  -0.1841E-03  -0.4391E-05
     ZZZ          0.2650E+04   0.2326E+02   0.2261E+02   0.5395E+00
 *******************************************************************************
 CHI(2) = BETA*2PI/V

 BETA AND CHI(2) IN A.U.:    [BETA] = M**(-1/2) L**(7/2) T
                             [CHI(2)] = 1/F
                             (L=LENGTH, M=MASS, T=TIME, F=FIELD INTENSITY)

 ELECTRIC SUSCEPTIBILITY IN THE SECOND HARMONIC GENERATION (SHG) CONVENTION IS:
                   d(A.U.)= 1/2 CHI(2)
                   d(MKS) = d(A.U.)/0.514220632 pm/V
                   d(CGS) = d(A.U.)/(4PI*1.7152535)  10**(-7) esu

 FIELD INTENSITY: 1 A.U. = 0.514220632*10**(11) V/m = 1.7152535*10**7 esu
 BEWARE:                CHI(2)=P/(E0*F**2)   (MKS)
                        CHI(2)=P/F**2        (CGS)
 WHERE P IS THE POLARIZATION VECTOR AND F IS THE APPLIED ELECTRIC FIELD.
 CONSISTENCY IS  PRESERVED BY MULTIPLYING THE CGS VALUE TIMES THE PERMITTIVITY
 OF THE VACUUM, E0 (CONVERSION FACTORS FROM www.physics.nist.gov/constants).
 IN PARENTHESIS: BETA BEFORE SYMMETRIZATION.

  SHG Effect beta(-2omega;omega,omega) with omega=   1.1653 eV


 SIZE OF GRID=     218638
 TTTTTTTTTTTTTTTTTTTTTTTTTTTTTT MAKE_GRID2  TELAPSE    46327.51 TCPU    46133.61
 BECKE WEIGHT FUNCTION
 RADSAFE =     2.00
 TOLERANCES - DENSITY:10**- 6; POTENTIAL:10**- 9; GRID WGT:10**-14

 RADIAL INTEGRATION  - INTERVALS (POINTS,UPPER LIMIT):            1( 75,  4.0*R)

 ANGULAR INTEGRATION - INTERVALS (ACCURACY LEVEL [N. POINTS] UPPER LIMIT):
  1(  4[  86]   0.2)  2(  8[ 194]   0.5)  3( 12[ 350]   0.9)  4( 16[ 974]   3.5)
  5( 12[ 350]9999.0)

 SIZE OF GRID=     218638
 TTTTTTTTTTTTTTTTTTTTTTTTTTTTTT MAKE_GRID2  TELAPSE    46329.61 TCPU    46135.68
 BECKE WEIGHT FUNCTION
 RADSAFE =     2.00
 TOLERANCES - DENSITY:10**- 6; POTENTIAL:10**- 9; GRID WGT:10**-14

 RADIAL INTEGRATION  - INTERVALS (POINTS,UPPER LIMIT):            1( 75,  4.0*R)

 ANGULAR INTEGRATION - INTERVALS (ACCURACY LEVEL [N. POINTS] UPPER LIMIT):
  1(  4[  86]   0.2)  2(  8[ 194]   0.5)  3( 12[ 350]   0.9)  4( 16[ 974]   3.5)
  5( 12[ 350]9999.0)
 *******************************************************************************

 SECOND HARMONIC GENERATION (SHG)  AND SECOND ELECTRIC SUSCEPTIBILITY (CHI(2))
 TENSORS (INDEPENDENT COMPONENTS)

BETA                                         CHI(2)       d(MKS)       d(cgs)
 *******************************************************************************

     XXX         -0.1269E+03  -0.1114E+01  -0.1083E+01  -0.2583E-01
     XXY         -0.6125E+01  -0.5376E-01  -0.5227E-01  -0.1247E-02
     XXZ          0.1054E+04   0.9250E+01   0.8994E+01   0.2146E+00
     XYX         -0.6125E+01  -0.5376E-01  -0.5227E-01  -0.1247E-02
     XYY          0.1269E+03   0.1114E+01   0.1083E+01   0.2583E-01
     XYZ          0.2916E+01   0.2559E-01   0.2489E-01   0.5937E-03
     XZX          0.1054E+04   0.9250E+01   0.8994E+01   0.2146E+00
     XZY          0.2916E+01   0.2559E-01   0.2489E-01   0.5937E-03
     XZZ         -0.2857E-02  -0.2507E-04  -0.2438E-04  -0.5817E-06
     YXX         -0.6126E+01  -0.5378E-01  -0.5229E-01  -0.1247E-02
     YXY          0.1269E+03   0.1114E+01   0.1083E+01   0.2583E-01
     YXZ         -0.2942E+01  -0.2582E-01  -0.2511E-01  -0.5990E-03
     YYX          0.1269E+03   0.1114E+01   0.1083E+01   0.2583E-01
     YYY          0.6131E+01   0.5382E-01   0.5233E-01   0.1248E-02
     YYZ          0.1054E+04   0.9250E+01   0.8994E+01   0.2146E+00
     YZX         -0.2942E+01  -0.2582E-01  -0.2511E-01  -0.5990E-03
     YZY          0.1054E+04   0.9250E+01   0.8994E+01   0.2146E+00
     YZZ         -0.3600E-02  -0.3160E-04  -0.3072E-04  -0.7330E-06
     ZXX          0.9667E+03   0.8486E+01   0.8251E+01   0.1968E+00
     ZXY         -0.3042E-01  -0.2670E-03  -0.2596E-03  -0.6194E-05
     ZXZ         -0.2777E-01  -0.2437E-03  -0.2370E-03  -0.5654E-05
     ZYX         -0.3042E-01  -0.2670E-03  -0.2596E-03  -0.6194E-05
     ZYY          0.9667E+03   0.8485E+01   0.8251E+01   0.1968E+00
     ZYZ         -0.4484E-01  -0.3936E-03  -0.3827E-03  -0.9131E-05
     ZZX         -0.2777E-01  -0.2437E-03  -0.2370E-03  -0.5654E-05
     ZZY         -0.4484E-01  -0.3936E-03  -0.3827E-03  -0.9131E-05
     ZZZ          0.3092E+04   0.2714E+02   0.2639E+02   0.6296E+00
 *******************************************************************************
 CHI(2) = BETA*2PI/V

 BETA AND CHI(2) IN A.U.:    [BETA] = M**(-1/2) L**(7/2) T
                             [CHI(2)] = 1/F
                             (L=LENGTH, M=MASS, T=TIME, F=FIELD INTENSITY)

 ELECTRIC SUSCEPTIBILITY IN THE SECOND HARMONIC GENERATION (SHG) CONVENTION IS:
                   d(A.U.)= 1/2 CHI(2)
                   d(MKS) = d(A.U.)/0.514220632 pm/V
                   d(CGS) = d(A.U.)/(4PI*1.7152535)  10**(-7) esu

 FIELD INTENSITY: 1 A.U. = 0.514220632*10**(11) V/m = 1.7152535*10**7 esu
 BEWARE:                CHI(2)=P/(E0*F**2)   (MKS)
                        CHI(2)=P/F**2        (CGS)
 WHERE P IS THE POLARIZATION VECTOR AND F IS THE APPLIED ELECTRIC FIELD.
 CONSISTENCY IS  PRESERVED BY MULTIPLYING THE CGS VALUE TIMES THE PERMITTIVITY
 OF THE VACUUM, E0 (CONVERSION FACTORS FROM www.physics.nist.gov/constants).
 IN PARENTHESIS: BETA BEFORE SYMMETRIZATION.

 *******************************************************************************


 GCALCO - MAX INDICES DIRECT LATTICE VECTOR    14    14    14
 NO.OF VECTORS CREATED 6999 STARS  522 RMAX   106.24116 BOHR

 CAPPA:IS1  5;IS2  5;IS3  5; K PTS MONK NET  19; SYMMOPS:K SPACE  12;G SPACE   6

 TTTTTTTTTTTTTTTTTTTTTTTTTTTTTT END         TELAPSE    46329.64 TCPU    46135.69
 EEEEEEEEEE TERMINATION  DATE 09 06 2022 TIME 18:41:47.3
NODE    0 CPU TIME =     46135.694
    TOTAL CPU TIME =   6651297.880
pe files deleted
TMPDIR copied back to SUBMIT_DIR
TMPDIR deleted
