
The following have been reloaded with a version change:
  1) releases/2021b => releases/2017b

TMPDIR created
/home/unamur/ucpts/fmairess/CRYSTAL17/bin/Linux-ifort17_XE_emt64/v1.mod/crystal
         480 PROCESSORS WORKING

         
 *******************************************************************************
 *                                                                             *
 *                               CRYSTAL17                                     *
 *                      public : 1.0.2 - March 1st, 2018                       *
 *                       HTTP://WWW.CRYSTAL.UNITO.IT                           *
 *                                                                             *
 *                              MAIN AUTHORS                                   *
 *                                                                             *
 *  R. DOVESI(1,11), V.R. SAUNDERS(2), C. ROETTI(1,11), R. ORLANDO(1,11),      *
 *  C.M. ZICOVICH-WILSON(1,3), F. PASCALE(4), B. CIVALLERI(1,11),              *
 *  K. DOLL(5), N.M. HARRISON(2,6), I.J. BUSH(7), Ph. D'ARCO(8),               *
 *  M. LLUNELL(9), M. CAUSA'(10), Y. NOEL(8), L. MASCHIO(1,11), A. ERBA(1,11)  *
 *  M. RE'RAT(14), S. CASASSA(1,11)                                            *
 *                                                                             *
 *        CONTRIBUTIONS TO THE CODE HAVE ALSO BEEN GIVEN BY                    *
 *                                                                             *
 *  M. FERRABONE(1,11), M. DE LA PIERRE(1,11), M. FERRERO(1,11),               *
 *  J. BAIMA(1,11), E. ALBANESE(1,11), M.F. PEINTINGER(12), R. BAST(13),       *
 *  B. KIRTMAN(15), V. LACIVITA(1,11), R. DEMICHELIS(1,16)                     *
 *  G. BRANDEBURG(17), S. SALUSTRO(1,11), G. SANSONE(1,11)                     *
 *  M.T. RUGGIERO(18)                                                          *
 *                                                                             *
 * (1) THEORETICAL CHEMISTRY GROUP - UNIVERSITA' DI TORINO - TORINO (ITALY)    *
 * (2) COMPUTATIONAL SCIENCE & ENGINEERING DEPARTMENT - STFC DARESBURY (UK)    *
 * (3) UNIVERSIDAD AUTONOMA DEL ESTADO DE MORELOS - CUERNAVACA (MEXICO)        *
 * (4) UNIVERSITE' DE LORRAINE - NANCY (FRANCE)                                *
 * (5) UNIVERSITAET STUTTGART- STUTTGART (GERMANY)                             *
 * (6) IMPERIAL COLLEGE - LONDON (UK)                                          *
 * (7) OXFORD E-RESEARCH CENTRE - OXFORD (UK)                                  *
 * (8) UPMC - SORBONNE UNIVERSITES - PARIS (FRANCE)                            *
 * (9) UNIVERSIDAD DE BARCELONA - BARCELONA (SPAIN)                            *
 *(10) UNIVERSITA' DI NAPOLI "FEDERICO II" - NAPOLI (ITALY)                    *
 *(11) NIS - NANOSTRUCTURED INTERFACES AND SURFACES - TORINO (ITALY)           *
 *(12) MPI FUER CHEMISCHE ENERGIEKONVERSION - MUELHEIM AN DER RUHR (GERMANY)   *
 *(13) UNIVERSITY OF TROMSO - TROMSO (NORWAY)                                  *
 *(14) UNIVERSITE' DE PAU ET DES PAYS DE L'ADOUR - PAU (FRANCE)                *
 *(15) UNIVERSITY OF CALIFORNIA SANTA BARBARA - SANTA BARBARA (USA)            *
 *(16) CURTIN UNIVERSITY - PERTH (AUSTRALIA)                                   *
 *(17) UNIVERSITY COLLEGE LONDON - LONDON (UK)                                 *
 *(18) CAMBRIDGE UNIVERSITY - CAMBRIDGE (UK)                                   *
 *                                                                             *
 *******************************************************************************
 EEEEEEEEEE STARTING  DATE 13 09 2022 TIME 05:52:30.6
 water50                                                                         

 CRYSTAL CALCULATION
 (INPUT ACCORDING TO THE INTERNATIONAL TABLES FOR X-RAY CRYSTALLOGRAPHY)
 CRYSTAL FAMILY                       :  TRICLINIC   
 CRYSTAL CLASS  (GROTH - 1921)        :  TRICLINIC PEDIAL                     

 SPACE GROUP (NONCENTROSYMMETRIC)     :  P 1             

 LATTICE PARAMETERS  (ANGSTROMS AND DEGREES) - CONVENTIONAL CELL
        A           B           C        ALPHA        BETA       GAMMA
    14.45970    14.45970    14.45970    90.00000    90.00000    90.00000


 NUMBER OF IRREDUCIBLE ATOMS IN THE CONVENTIONAL CELL:  300

 INPUT COORDINATES

 ATOM AT. N.              COORDINATES
   1   8    -4.449608000000E-03 -1.459230000000E-04  3.872830000000E-04
   2   1     3.042732600000E-02  3.843855700000E-02 -4.519734200000E-02
   3   1     4.019447200000E-02 -3.612730600000E-02  3.905544400000E-02
   4   8    -1.568345120000E-01 -9.974411600000E-02 -4.229963300000E-02
   5   1    -1.704419870000E-01 -1.346293490000E-01  1.584680200000E-02
   6   1    -1.086633890000E-01 -5.175833500000E-02 -2.965068400000E-02
   7   8     5.825224600000E-02  1.249521080000E-01 -1.379620600000E-01
   8   1     1.111281700000E-01  1.569970330000E-01 -1.689523300000E-01
   9   1    -4.204790000000E-04  1.589998410000E-01 -1.514277610000E-01
  10   8    -6.020111100000E-02  8.236892900000E-02  1.888310270000E-01
  11   1    -6.712034100000E-02  4.309771300000E-02  1.323243220000E-01
  12   1    -1.177065000000E-03  1.182009310000E-01  1.849104750000E-01
  13   8     4.023734900000E-02 -2.001832680000E-01 -1.312454620000E-01
  14   1     2.605172000000E-03 -1.943117770000E-01 -7.351812300000E-02
  15   1     1.074482870000E-01 -1.961161020000E-01 -1.154581350000E-01
  16   8    -1.147741700000E-02 -2.405236620000E-01  3.190937600000E-02
  17   1    -7.295310400000E-02 -2.668582340000E-01  4.952730700000E-02
  18   1     2.821151200000E-02 -2.349384840000E-01  8.827084900000E-02
  19   8     1.014972650000E-01  1.724572430000E-01  1.830777960000E-01
  20   1     1.284577140000E-01  1.126288930000E-01  2.049143480000E-01
  21   1     1.525536490000E-01  2.159519220000E-01  1.662102260000E-01
  22   8    -2.100347860000E-01 -9.408148200000E-02  1.508240140000E-01
  23   1    -2.537957220000E-01 -4.517866900000E-02  1.289923030000E-01
  24   1    -2.459317970000E-01 -1.486420880000E-01  1.735748320000E-01
  25   8     2.203392880000E-01  6.923380000000E-03 -1.753770830000E-01
  26   1     1.764365790000E-01  5.856553000000E-02 -1.616368250000E-01
  27   1     1.878711180000E-01 -4.172493200000E-02 -2.122844870000E-01
  28   8     1.995311110000E-01 -1.975324520000E-01 -2.364364400000E-02
  29   1     2.298920450000E-01 -2.494069720000E-01 -5.785320600000E-02
  30   1     1.619134560000E-01 -2.231588480000E-01  2.842590100000E-02
  31   8     1.140708310000E-01 -2.222169200000E-01  1.577646840000E-01
  32   1     1.826192800000E-01 -2.278325280000E-01  1.650179460000E-01
  33   1     9.007517400000E-02 -1.745070780000E-01  2.017095790000E-01
  34   8    -1.143813500000E-01  2.115735460000E-01 -1.991894710000E-01
  35   1    -1.506414380000E-01  2.250198830000E-01 -1.418521820000E-01
  36   1    -1.573054770000E-01  1.907128090000E-01 -2.492437600000E-01
  37   8    -2.195875430000E-01  2.245350870000E-01 -3.649038400000E-02
  38   1    -2.734614130000E-01  1.849658020000E-01 -5.423902300000E-02
  39   1    -2.145494030000E-01  2.270413630000E-01  3.243981500000E-02
  40   8    -1.834802940000E-01  2.141870160000E-01  1.579610920000E-01
  41   1    -1.515750670000E-01  1.531290410000E-01  1.518745200000E-01
  42   1    -1.471807850000E-01  2.550364120000E-01  2.003499380000E-01
  43   8     3.169242790000E-01 -5.546726400000E-02  1.197258600000E-02
  44   1     2.748203630000E-01 -1.059240510000E-01 -9.579728000000E-03
  45   1     3.816489970000E-01 -7.952862100000E-02  1.582052200000E-02
  46   8     1.637385280000E-01  2.042711800000E-02  2.781406250000E-01
  47   1     2.193821450000E-01 -6.666113000000E-03  2.472734570000E-01
  48   1     1.813135820000E-01  4.406799600000E-02  3.407124630000E-01
  49   8     1.118612420000E-01 -1.281548030000E-01 -2.827596700000E-01
  50   1     1.744337710000E-01 -1.572964860000E-01 -2.784525270000E-01
  51   1     7.311562500000E-02 -1.487499740000E-01 -2.293035130000E-01
  52   8     3.083023850000E-01  1.338430260000E-01 -3.170812700000E-02
  53   1     2.956728010000E-01  6.872410900000E-02 -1.213441500000E-02
  54   1     2.795016490000E-01  1.453245920000E-01 -9.352891100000E-02
  55   8     2.071993190000E-01  2.136240720000E-01 -1.853032910000E-01
  56   1     2.598899010000E-01  2.207708320000E-01 -2.295268920000E-01
  57   1     1.931340210000E-01  2.747373740000E-01 -1.561415520000E-01
  58   8    -2.897044890000E-01 -1.130659700000E-01 -1.868793960000E-01
  59   1    -2.557376710000E-01 -1.047552850000E-01 -1.272108000000E-01
  60   1    -3.109794810000E-01 -1.786440940000E-01 -1.923490810000E-01
  61   8    -3.593663770000E-01  2.229368500000E-02  8.655297100000E-02
  62   1    -3.357780590000E-01  5.645967800000E-02  3.124200400000E-02
  63   1    -3.645504400000E-01  6.581948400000E-02  1.400478570000E-01
  64   8    -1.464428720000E-01 -1.294349120000E-01 -3.206228340000E-01
  65   1    -1.905544380000E-01 -1.200875540000E-01 -2.681832960000E-01
  66   1    -1.027040670000E-01 -1.807056850000E-01 -3.050879340000E-01
  67   8    -9.038569300000E-02  5.390568300000E-02  3.620151180000E-01
  68   1    -8.361445900000E-02  7.506449000000E-02  2.965206750000E-01
  69   1    -9.865557400000E-02 -1.474581100000E-02  3.633194330000E-01
  70   8     2.362759950000E-01  2.843122610000E-01  6.818052900000E-02
  71   1     2.647344000000E-01  2.371591390000E-01  2.635047800000E-02
  72   1     2.132769010000E-01  3.376010570000E-01  3.057117400000E-02
  73   8    -6.662033100000E-02 -2.697123730000E-01 -2.587951340000E-01
  74   1    -3.178005100000E-02 -2.513136510000E-01 -2.019564720000E-01
  75   1    -4.130445300000E-02 -3.293228770000E-01 -2.830611980000E-01
  76   8     3.152050180000E-01 -6.016099900000E-02  2.147568760000E-01
  77   1     3.115486490000E-01 -6.011881300000E-02  1.456938940000E-01
  78   1     3.326299990000E-01 -1.233289760000E-01  2.368762840000E-01
  79   8    -1.929991630000E-01 -3.372352120000E-01  4.323741200000E-02
  80   1    -1.768473760000E-01 -3.590641580000E-01 -2.036833400000E-02
  81   1    -2.601250370000E-01 -3.207542340000E-01  4.559638200000E-02
  82   8    -1.679612990000E-01 -1.262287600000E-01  3.342206270000E-01
  83   1    -1.769123840000E-01 -1.101426720000E-01  2.675553430000E-01
  84   1    -1.735139730000E-01 -1.946831540000E-01  3.423584170000E-01
  85   8    -3.338243500000E-02  3.141966980000E-01  2.409323840000E-01
  86   1     1.214410000000E-03  2.561809720000E-01  2.260904440000E-01
  87   1    -3.411550700000E-02  3.237114190000E-01  3.094303480000E-01
  88   8     6.266382000000E-03 -3.366736500000E-02 -4.026577310000E-01
  89   1     5.996874100000E-02 -6.034980000000E-02 -3.682026600000E-01
  90   1    -5.166773900000E-02 -4.340339000000E-02 -3.661631980000E-01
  91   8     1.062760640000E-01 -3.938235230000E-01 -4.893601000000E-03
  92   1     5.862777200000E-02 -3.440762950000E-01 -1.106108700000E-02
  93   1     1.139484220000E-01 -4.102422600000E-01  6.184913900000E-02
  94   8    -3.200384520000E-01  7.067712300000E-02 -2.455839330000E-01
  95   1    -3.041266420000E-01  6.757402000000E-03 -2.245074240000E-01
  96   1    -2.724537850000E-01  9.256969400000E-02 -2.907446210000E-01
  97   8    -4.885232800000E-02  4.082871710000E-01  8.374516800000E-02
  98   1    -4.689447200000E-02  3.761806950000E-01  1.449698130000E-01
  99   1    -1.084372430000E-01  3.935420510000E-01  5.188212800000E-02
 100   8     6.886727000000E-03  3.424386400000E-01 -2.492423770000E-01
 101   1    -3.408507800000E-02  2.912404820000E-01 -2.272626680000E-01
 102   1     2.457381600000E-02  3.824235630000E-01 -1.956562030000E-01
 103   8     1.264791110000E-01 -1.876532710000E-01  3.553171920000E-01
 104   1     1.775569340000E-01 -1.726979120000E-01  3.994813170000E-01
 105   1     6.795161700000E-02 -1.576969090000E-01  3.767706110000E-01
 106   8     2.151891120000E-01 -3.144989180000E-01 -1.796095350000E-01
 107   1     2.467222690000E-01 -3.578096360000E-01 -2.233476490000E-01
 108   1     1.608456610000E-01 -3.462305580000E-01 -1.509222180000E-01
 109   8     2.943214590000E-01 -2.586962390000E-01  1.714841940000E-01
 110   1     3.263297300000E-01 -2.716646960000E-01  1.115645550000E-01
 111   1     3.275358410000E-01 -2.910101870000E-01  2.228234330000E-01
 112   8    -3.904513920000E-01  1.522901580000E-01 -8.667330600000E-02
 113   1    -3.824574510000E-01  1.446067350000E-01 -1.549382080000E-01
 114   1    -4.441744990000E-01  1.940538190000E-01 -7.431482000000E-02
 115   8     2.468308500000E-02  4.265081570000E-01 -8.723555800000E-02
 116   1    -5.781590000000E-04  3.972952410000E-01 -2.986369000000E-02
 117   1     1.222362800000E-02  4.945227080000E-01 -8.587245900000E-02
 118   8     4.125784080000E-01 -4.199326400000E-02 -1.683527320000E-01
 119   1     3.488986630000E-01 -4.443453200000E-02 -1.414821880000E-01
 120   1     4.159443140000E-01  8.888151000000E-03 -2.150736180000E-01
 121   8    -3.698430810000E-01 -2.542908910000E-01  3.203109300000E-02
 122   1    -3.681058390000E-01 -2.494450090000E-01  1.009986380000E-01
 123   1    -3.982316370000E-01 -1.970276010000E-01  5.610766000000E-03
 124   8    -2.187237630000E-01  1.729012360000E-01 -3.524312400000E-01
 125   1    -2.189416100000E-01  1.417491370000E-01 -4.141773340000E-01
 126   1    -2.755022580000E-01  2.118750730000E-01 -3.460784110000E-01
 127   8     2.192472870000E-01  3.838903990000E-01 -9.763342300000E-02
 128   1     1.534651480000E-01  4.051736900000E-01 -9.928214300000E-02
 129   1     2.592536500000E-01  4.345664160000E-01 -7.284314300000E-02
 130   8    -3.705194440000E-01  1.849249980000E-01  2.106475240000E-01
 131   1    -4.109905460000E-01  2.307433760000E-01  1.783079870000E-01
 132   1    -3.041653700000E-01  2.015228530000E-01  2.004149460000E-01
 133   8    -3.409531320000E-01 -2.283048750000E-01  2.093812460000E-01
 134   1    -3.798543540000E-01 -1.737276710000E-01  2.264410740000E-01
 135   1    -3.433791850000E-01 -2.751315730000E-01  2.602177090000E-01
 136   8     8.956963100000E-02 -4.181518290000E-01  1.946022390000E-01
 137   1     9.907881900000E-02 -3.523579330000E-01  1.755257720000E-01
 138   1     2.332690200000E-02 -4.277619870000E-01  2.119995570000E-01
 139   8    -1.029246800000E-01 -4.298712970000E-01  1.674758120000E-01
 140   1    -1.471565800000E-01 -3.922245970000E-01  1.299356140000E-01
 141   1    -6.977945600000E-02 -4.744019590000E-01  1.262259940000E-01
 142   8     1.638920590000E-01  1.484781840000E-01  4.189360780000E-01
 143   1     2.022033650000E-01  2.057532310000E-01  4.248469890000E-01
 144   1     1.037884600000E-01  1.574424090000E-01  4.519554350000E-01
 145   8    -4.700484800000E-01 -9.381038300000E-02 -1.876525800000E-02
 146   1    -4.434165300000E-01 -4.677828700000E-02  2.438294000000E-02
 147   1    -4.885004530000E-01 -6.301998000000E-02 -7.788059200000E-02
 148   8     3.674848030000E-01 -2.023596620000E-01 -2.593055180000E-01
 149   1     3.091274370000E-01 -2.207922710000E-01 -2.270918480000E-01
 150   1     3.952371070000E-01 -1.477222900000E-01 -2.272481450000E-01
 151   8    -2.638989740000E-01 -3.228974320000E-01 -2.573331400000E-01
 152   1    -1.960455610000E-01 -3.148806680000E-01 -2.680435970000E-01
 153   1    -2.939037460000E-01 -3.454006650000E-01 -3.154394630000E-01
 154   8    -1.700643860000E-01 -3.328430050000E-01  3.191463170000E-01
 155   1    -2.374620500000E-01 -3.399952970000E-01  3.329107800000E-01
 156   1    -1.543669650000E-01 -3.682095760000E-01  2.618242430000E-01
 157   8    -2.278643400000E-01  4.369786370000E-01  7.913027000000E-03
 158   1    -2.429628550000E-01  4.834616210000E-01 -4.101952300000E-02
 159   1    -2.507278850000E-01  3.746986450000E-01 -1.161919000000E-02
 160   8    -2.327233620000E-01 -4.265178390000E-01 -1.223759830000E-01
 161   1    -2.032766930000E-01 -4.769061600000E-01 -1.594839450000E-01
 162   1    -2.557798570000E-01 -3.770631480000E-01 -1.648699490000E-01
 163   8    -1.188752200000E-02  1.556864940000E-01  4.874222840000E-01
 164   1    -3.282433200000E-02  1.307212460000E-01  4.264182520000E-01
 165   1    -3.826497000000E-03  1.035374180000E-01  5.321265310000E-01
 166   8    -3.511898600000E-02 -1.725575220000E-01  4.810514740000E-01
 167   1    -7.564334000000E-02 -1.573206910000E-01  4.271202030000E-01
 168   1    -2.689544000000E-02 -1.162375430000E-01  5.203392880000E-01
 169   8     4.246851590000E-01 -2.784338540000E-01 -1.449407700000E-02
 170   1     4.502320240000E-01 -3.420223100000E-01 -5.167465000000E-03
 171   1     4.767152850000E-01 -2.330428710000E-01 -1.844920700000E-02
 172   8    -4.428667260000E-01 -7.552231400000E-02  2.660968070000E-01
 173   1    -5.004384600000E-01 -3.753604800000E-02  2.711577700000E-01
 174   1    -4.039592800000E-01 -6.602903200000E-02  3.224804110000E-01
 175   8    -2.336791220000E-01  1.220447170000E-01  4.580205680000E-01
 176   1    -1.778992650000E-01  1.027635430000E-01  4.219658780000E-01
 177   1    -2.907010520000E-01  1.082138630000E-01  4.214091580000E-01
 178   8     3.234479280000E-01  3.610192470000E-01  2.170162590000E-01
 179   1     2.938650180000E-01  3.183765910000E-01  1.713043840000E-01
 180   1     2.745236760000E-01  3.907307900000E-01  2.558331090000E-01
 181   8     6.960863600000E-02  3.209257450000E-01 -4.236602420000E-01
 182   1     4.696363000000E-02  3.219790180000E-01 -3.583220950000E-01
 183   1     3.908863900000E-02  2.690982520000E-01 -4.577992630000E-01
 184   8     4.639328620000E-01  2.684322630000E-01 -3.716812900000E-02
 185   1     4.142921360000E-01  2.206048530000E-01 -3.156912000000E-02
 186   1     4.673513280000E-01  3.050685700000E-01  2.139048500000E-02
 187   8    -1.607854930000E-01  4.413507890000E-01 -2.591104930000E-01
 188   1    -1.905786430000E-01  4.432699160000E-01 -3.214949130000E-01
 189   1    -1.136219980000E-01  3.907881910000E-01 -2.576388170000E-01
 190   8     1.422235590000E-01  4.318879370000E-01  2.873828640000E-01
 191   1     8.659999900000E-02  3.918684340000E-01  2.780265150000E-01
 192   1     1.412069410000E-01  4.838094840000E-01  2.417083340000E-01
 193   8     3.687524640000E-01  2.722241820000E-01 -2.852984500000E-01
 194   1     3.910219440000E-01  2.076827320000E-01 -2.963215000000E-01
 195   1     4.206145360000E-01  3.105472450000E-01 -2.603041560000E-01
 196   8     4.048424240000E-01  2.452402200000E-02  3.664543520000E-01
 197   1     3.722912650000E-01  8.219741800000E-02  3.863863010000E-01
 198   1     3.696335330000E-01 -5.154325000000E-03  3.148536970000E-01
 199   8     2.437934400000E-01 -1.558026790000E-01 -4.649889000000E-01
 200   1     2.642634360000E-01 -2.216442940000E-01 -4.596118870000E-01
 201   1     2.172341060000E-01 -1.349218860000E-01 -4.046425580000E-01
 202   8     2.009792700000E-02 -4.519167060000E-01 -3.054606940000E-01
 203   1     5.029357500000E-02 -4.304480730000E-01 -3.638595540000E-01
 204   1     2.507659200000E-02 -5.207452440000E-01 -3.008935180000E-01
 205   8     1.615732000000E-01 -3.737193720000E-01  3.790279190000E-01
 206   1     1.506386720000E-01 -3.293844270000E-01  3.270863160000E-01
 207   1     1.736301580000E-01 -4.367905280000E-01  3.533434300000E-01
 208   8    -3.454615240000E-01 -8.600455100000E-02  4.254687170000E-01
 209   1    -2.815079150000E-01 -1.087436120000E-01  4.122014980000E-01
 210   1    -3.484698850000E-01 -6.221221700000E-02  4.903379740000E-01
 211   8     3.141856330000E-01 -4.710803130000E-01 -5.786150500000E-02
 212   1     3.703569230000E-01 -4.706874970000E-01 -1.751557800000E-02
 213   1     3.062615410000E-01 -4.088349000000E-01 -8.694371300000E-02
 214   8     3.659522670000E-01  2.099434980000E-01  3.772201360000E-01
 215   1     3.107395040000E-01  2.498578810000E-01  3.653256980000E-01
 216   1     4.079766520000E-01  2.415305990000E-01  4.221567530000E-01
 217   8    -4.058175480000E-01 -8.154180200000E-02 -3.956596610000E-01
 218   1    -3.905191670000E-01 -7.855349700000E-02 -3.282799780000E-01
 219   1    -4.728770310000E-01 -6.726142300000E-02 -4.047241640000E-01
 220   8    -2.317247250000E-01  3.224243930000E-01  4.258760560000E-01
 221   1    -2.403694410000E-01  2.554050220000E-01  4.406011190000E-01
 222   1    -1.648934630000E-01  3.390063420000E-01  4.323305460000E-01
 223   8    -4.203925390000E-01  1.372490440000E-01  3.824041990000E-01
 224   1    -4.146151030000E-01  1.733576770000E-01  3.237024280000E-01
 225   1    -4.546767910000E-01  7.847327400000E-02  3.700298070000E-01
 226   8    -4.246492000000E-02  3.897383760000E-01  4.303063000000E-01
 227   1    -8.553911900000E-02  4.425624320000E-01  4.185861390000E-01
 228   1    -1.117450600000E-02  3.986196120000E-01  4.913400690000E-01
 229   8     4.928013720000E-01  1.112111590000E-01 -3.036646680000E-01
 230   1     4.843973250000E-01  1.059869850000E-01 -3.721128380000E-01
 231   1     5.501843050000E-01  7.750368300000E-02 -2.848489250000E-01
 232   8     5.233234400000E-02 -3.555080670000E-01 -4.719032900000E-01
 233   1     2.465196400000E-02 -2.924963870000E-01 -4.787174010000E-01
 234   1     9.501234500000E-02 -3.677884050000E-01 -5.249189130000E-01
 235   8     2.507998090000E-01  3.922370450000E-01 -3.766641080000E-01
 236   1     2.957205200000E-01  3.524658190000E-01 -3.422622880000E-01
 237   1     1.862507520000E-01  3.734489650000E-01 -3.604334810000E-01
 238   8     2.451848930000E-01  3.426945230000E-01  4.184699540000E-01
 239   1     2.358479080000E-01  3.678596370000E-01  4.822084830000E-01
 240   1     1.971347950000E-01  3.687863510000E-01  3.761212200000E-01
 241   8     2.927654100000E-01 -4.255724530000E-01 -3.039738030000E-01
 242   1     2.739648820000E-01 -3.954729350000E-01 -3.633339560000E-01
 243   1     2.884776310000E-01 -4.942806560000E-01 -3.106011880000E-01
 244   8    -4.917259690000E-01  3.245696660000E-01  1.438563730000E-01
 245   1    -4.560474980000E-01  3.836760100000E-01  1.397933570000E-01
 246   1    -5.524319320000E-01  3.363735070000E-01  1.748169050000E-01
 247   8    -3.474339030000E-01 -3.488827570000E-01  3.533607200000E-01
 248   1    -3.499616170000E-01 -4.174975970000E-01  3.616506570000E-01
 249   1    -3.890412660000E-01 -3.185411870000E-01  3.995269610000E-01
 250   8    -3.771253900000E-01  3.267515920000E-01 -3.571858340000E-01
 251   1    -3.476794120000E-01  3.840743580000E-01 -3.822880140000E-01
 252   1    -4.052103430000E-01  3.403950290000E-01 -2.954750100000E-01
 253   8    -3.575703510000E-01  4.931132730000E-01  1.561173470000E-01
 254   1    -3.007807910000E-01  4.803225520000E-01  1.187756320000E-01
 255   1    -3.412767900000E-01  4.938636350000E-01  2.233262100000E-01
 256   8     4.126849100000E-01 -3.705692370000E-01  2.868731720000E-01
 257   1     4.298180460000E-01 -4.257100770000E-01  2.488073750000E-01
 258   1     4.325981870000E-01 -3.806621160000E-01  3.523302700000E-01
 259   8    -4.826884380000E-01  3.660698350000E-01 -1.994239160000E-01
 260   1    -5.060187970000E-01  3.294397530000E-01 -1.456005310000E-01
 261   1    -4.709191750000E-01  4.312641340000E-01 -1.795680410000E-01
 262   8     2.749967150000E-01 -3.353091700000E-01 -4.713444950000E-01
 263   1     3.288588280000E-01 -3.773363210000E-01 -4.820971390000E-01
 264   1     2.325566920000E-01 -3.378147540000E-01 -5.258940370000E-01
 265   8     4.792187940000E-01 -3.570336870000E-01 -2.608622590000E-01
 266   1     4.573767090000E-01 -2.920026000000E-01 -2.520854510000E-01
 267   1     4.299529040000E-01 -3.938179910000E-01 -2.925309650000E-01
 268   8     4.286638040000E-01 -8.747069400000E-02 -4.793909970000E-01
 269   1     3.649598540000E-01 -1.115790780000E-01 -4.674045800000E-01
 270   1     4.311887520000E-01 -5.943415100000E-02 -5.425631240000E-01
 271   8    -3.928027550000E-01 -3.473419230000E-01 -3.899693630000E-01
 272   1    -4.383811560000E-01 -3.484028020000E-01 -3.379634430000E-01
 273   1    -3.977599810000E-01 -2.871906060000E-01 -4.237376990000E-01
 274   8    -4.435569200000E-01 -4.697794560000E-01 -1.301071250000E-01
 275   1    -4.808370850000E-01 -4.251256940000E-01 -1.675152320000E-01
 276   1    -3.766302210000E-01 -4.630849880000E-01 -1.462028950000E-01
 277   8    -3.324059280000E-01  4.562847090000E-01  3.377711850000E-01
 278   1    -3.977717380000E-01  4.337316820000E-01  3.390748080000E-01
 279   1    -2.924431350000E-01  4.132520040000E-01  3.742989140000E-01
 280   8    -1.289846950000E-01 -4.416571570000E-01  4.840736670000E-01
 281   1    -1.330020680000E-01 -3.988160200000E-01  4.299293900000E-01
 282   1    -7.524983200000E-02 -4.236982790000E-01  5.237363150000E-01
 283   8    -4.444559710000E-01 -2.372020170000E-01  4.583297030000E-01
 284   1    -4.071543670000E-01 -1.798177000000E-01  4.682614440000E-01
 285   1    -5.114469870000E-01 -2.231429420000E-01  4.682075010000E-01
 286   8    -5.033008980000E-01 -4.644598440000E-01  4.301610700000E-02
 287   1    -4.684011420000E-01 -4.725236350000E-01 -1.614556300000E-02
 288   1    -4.587550230000E-01 -4.615282470000E-01  9.583808800000E-02
 289   8    -2.811427620000E-01  4.848516910000E-01 -4.228649280000E-01
 290   1    -3.191373270000E-01  5.419898060000E-01 -4.142222870000E-01
 291   1    -2.246574960000E-01  5.000926710000E-01 -4.597467440000E-01
 292   8    -4.914915250000E-01  2.482112350000E-01 -4.879326680000E-01
 293   1    -4.486358640000E-01  2.673278150000E-01 -4.371287090000E-01
 294   1    -4.598207430000E-01  2.021964490000E-01 -5.287094480000E-01
 295   8     4.637329960000E-01  4.090479060000E-01  4.054364890000E-01
 296   1     4.121655360000E-01  3.968353420000E-01  3.609991910000E-01
 297   1     4.791911310000E-01  3.508046500000E-01  4.393756440000E-01
 298   8     4.222362840000E-01 -4.397442550000E-01 -4.970545720000E-01
 299   1     4.774787860000E-01 -4.119884920000E-01 -4.660546210000E-01
 300   1     4.387815790000E-01 -5.020048830000E-01 -5.222134620000E-01

 *******************************************************************************

 << INFORMATION >>: FROM NOW ON, ALL COORDINATES REFER TO THE PRIMITIVE CELL

 *******************************************************************************

 LATTICE PARAMETERS  (ANGSTROMS AND DEGREES) - PRIMITIVE CELL
       A          B          C        ALPHA      BETA     GAMMA        VOLUME
   14.45970   14.45970   14.45970    90.00000  90.00000  90.00000   3023.276357

 COORDINATES OF THE EQUIVALENT ATOMS (FRACTIONAL UNITS)

 N. ATOM EQUIV AT. N.          X                  Y                  Z

   1   1   1    8 O    -4.44960800000E-03 -1.45923000000E-04  3.87283000000E-04

   2   2   1    1 H     3.04273260000E-02  3.84385570000E-02 -4.51973420000E-02

   3   3   1    1 H     4.01944720000E-02 -3.61273060000E-02  3.90554440000E-02

   4   4   1    8 O    -1.56834512000E-01 -9.97441160000E-02 -4.22996330000E-02

   5   5   1    1 H    -1.70441987000E-01 -1.34629349000E-01  1.58468020000E-02

   6   6   1    1 H    -1.08663389000E-01 -5.17583350000E-02 -2.96506840000E-02

   7   7   1    8 O     5.82522460000E-02  1.24952108000E-01 -1.37962060000E-01

   8   8   1    1 H     1.11128170000E-01  1.56997033000E-01 -1.68952330000E-01

   9   9   1    1 H    -4.20479000000E-04  1.58999841000E-01 -1.51427761000E-01

  10  10   1    8 O    -6.02011110000E-02  8.23689290000E-02  1.88831027000E-01

  11  11   1    1 H    -6.71203410000E-02  4.30977130000E-02  1.32324322000E-01

  12  12   1    1 H    -1.17706500000E-03  1.18200931000E-01  1.84910475000E-01

  13  13   1    8 O     4.02373490000E-02 -2.00183268000E-01 -1.31245462000E-01

  14  14   1    1 H     2.60517200000E-03 -1.94311777000E-01 -7.35181230000E-02

  15  15   1    1 H     1.07448287000E-01 -1.96116102000E-01 -1.15458135000E-01

  16  16   1    8 O    -1.14774170000E-02 -2.40523662000E-01  3.19093760000E-02

  17  17   1    1 H    -7.29531040000E-02 -2.66858234000E-01  4.95273070000E-02

  18  18   1    1 H     2.82115120000E-02 -2.34938484000E-01  8.82708490000E-02

  19  19   1    8 O     1.01497265000E-01  1.72457243000E-01  1.83077796000E-01

  20  20   1    1 H     1.28457714000E-01  1.12628893000E-01  2.04914348000E-01

  21  21   1    1 H     1.52553649000E-01  2.15951922000E-01  1.66210226000E-01

  22  22   1    8 O    -2.10034786000E-01 -9.40814820000E-02  1.50824014000E-01

  23  23   1    1 H    -2.53795722000E-01 -4.51786690000E-02  1.28992303000E-01

  24  24   1    1 H    -2.45931797000E-01 -1.48642088000E-01  1.73574832000E-01

  25  25   1    8 O     2.20339288000E-01  6.92338000000E-03 -1.75377083000E-01

  26  26   1    1 H     1.76436579000E-01  5.85655300000E-02 -1.61636825000E-01

  27  27   1    1 H     1.87871118000E-01 -4.17249320000E-02 -2.12284487000E-01

  28  28   1    8 O     1.99531111000E-01 -1.97532452000E-01 -2.36436440000E-02

  29  29   1    1 H     2.29892045000E-01 -2.49406972000E-01 -5.78532060000E-02

  30  30   1    1 H     1.61913456000E-01 -2.23158848000E-01  2.84259010000E-02

  31  31   1    8 O     1.14070831000E-01 -2.22216920000E-01  1.57764684000E-01

  32  32   1    1 H     1.82619280000E-01 -2.27832528000E-01  1.65017946000E-01

  33  33   1    1 H     9.00751740000E-02 -1.74507078000E-01  2.01709579000E-01

  34  34   1    8 O    -1.14381350000E-01  2.11573546000E-01 -1.99189471000E-01

  35  35   1    1 H    -1.50641438000E-01  2.25019883000E-01 -1.41852182000E-01

  36  36   1    1 H    -1.57305477000E-01  1.90712809000E-01 -2.49243760000E-01

  37  37   1    8 O    -2.19587543000E-01  2.24535087000E-01 -3.64903840000E-02

  38  38   1    1 H    -2.73461413000E-01  1.84965802000E-01 -5.42390230000E-02

  39  39   1    1 H    -2.14549403000E-01  2.27041363000E-01  3.24398150000E-02

  40  40   1    8 O    -1.83480294000E-01  2.14187016000E-01  1.57961092000E-01

  41  41   1    1 H    -1.51575067000E-01  1.53129041000E-01  1.51874520000E-01

  42  42   1    1 H    -1.47180785000E-01  2.55036412000E-01  2.00349938000E-01

  43  43   1    8 O     3.16924279000E-01 -5.54672640000E-02  1.19725860000E-02

  44  44   1    1 H     2.74820363000E-01 -1.05924051000E-01 -9.57972800000E-03

  45  45   1    1 H     3.81648997000E-01 -7.95286210000E-02  1.58205220000E-02

  46  46   1    8 O     1.63738528000E-01  2.04271180000E-02  2.78140625000E-01

  47  47   1    1 H     2.19382145000E-01 -6.66611300000E-03  2.47273457000E-01

  48  48   1    1 H     1.81313582000E-01  4.40679960000E-02  3.40712463000E-01

  49  49   1    8 O     1.11861242000E-01 -1.28154803000E-01 -2.82759670000E-01

  50  50   1    1 H     1.74433771000E-01 -1.57296486000E-01 -2.78452527000E-01

  51  51   1    1 H     7.31156250000E-02 -1.48749974000E-01 -2.29303513000E-01

  52  52   1    8 O     3.08302385000E-01  1.33843026000E-01 -3.17081270000E-02

  53  53   1    1 H     2.95672801000E-01  6.87241090000E-02 -1.21344150000E-02

  54  54   1    1 H     2.79501649000E-01  1.45324592000E-01 -9.35289110000E-02

  55  55   1    8 O     2.07199319000E-01  2.13624072000E-01 -1.85303291000E-01

  56  56   1    1 H     2.59889901000E-01  2.20770832000E-01 -2.29526892000E-01

  57  57   1    1 H     1.93134021000E-01  2.74737374000E-01 -1.56141552000E-01

  58  58   1    8 O    -2.89704489000E-01 -1.13065970000E-01 -1.86879396000E-01

  59  59   1    1 H    -2.55737671000E-01 -1.04755285000E-01 -1.27210800000E-01

  60  60   1    1 H    -3.10979481000E-01 -1.78644094000E-01 -1.92349081000E-01

  61  61   1    8 O    -3.59366377000E-01  2.22936850000E-02  8.65529710000E-02

  62  62   1    1 H    -3.35778059000E-01  5.64596780000E-02  3.12420040000E-02

  63  63   1    1 H    -3.64550440000E-01  6.58194840000E-02  1.40047857000E-01

  64  64   1    8 O    -1.46442872000E-01 -1.29434912000E-01 -3.20622834000E-01

  65  65   1    1 H    -1.90554438000E-01 -1.20087554000E-01 -2.68183296000E-01

  66  66   1    1 H    -1.02704067000E-01 -1.80705685000E-01 -3.05087934000E-01

  67  67   1    8 O    -9.03856930000E-02  5.39056830000E-02  3.62015118000E-01

  68  68   1    1 H    -8.36144590000E-02  7.50644900000E-02  2.96520675000E-01

  69  69   1    1 H    -9.86555740000E-02 -1.47458110000E-02  3.63319433000E-01

  70  70   1    8 O     2.36275995000E-01  2.84312261000E-01  6.81805290000E-02

  71  71   1    1 H     2.64734400000E-01  2.37159139000E-01  2.63504780000E-02

  72  72   1    1 H     2.13276901000E-01  3.37601057000E-01  3.05711740000E-02

  73  73   1    8 O    -6.66203310000E-02 -2.69712373000E-01 -2.58795134000E-01

  74  74   1    1 H    -3.17800510000E-02 -2.51313651000E-01 -2.01956472000E-01

  75  75   1    1 H    -4.13044530000E-02 -3.29322877000E-01 -2.83061198000E-01

  76  76   1    8 O     3.15205018000E-01 -6.01609990000E-02  2.14756876000E-01

  77  77   1    1 H     3.11548649000E-01 -6.01188130000E-02  1.45693894000E-01

  78  78   1    1 H     3.32629999000E-01 -1.23328976000E-01  2.36876284000E-01

  79  79   1    8 O    -1.92999163000E-01 -3.37235212000E-01  4.32374120000E-02

  80  80   1    1 H    -1.76847376000E-01 -3.59064158000E-01 -2.03683340000E-02

  81  81   1    1 H    -2.60125037000E-01 -3.20754234000E-01  4.55963820000E-02

  82  82   1    8 O    -1.67961299000E-01 -1.26228760000E-01  3.34220627000E-01

  83  83   1    1 H    -1.76912384000E-01 -1.10142672000E-01  2.67555343000E-01

  84  84   1    1 H    -1.73513973000E-01 -1.94683154000E-01  3.42358417000E-01

  85  85   1    8 O    -3.33824350000E-02  3.14196698000E-01  2.40932384000E-01

  86  86   1    1 H     1.21441000000E-03  2.56180972000E-01  2.26090444000E-01

  87  87   1    1 H    -3.41155070000E-02  3.23711419000E-01  3.09430348000E-01

  88  88   1    8 O     6.26638200000E-03 -3.36673650000E-02 -4.02657731000E-01

  89  89   1    1 H     5.99687410000E-02 -6.03498000000E-02 -3.68202660000E-01

  90  90   1    1 H    -5.16677390000E-02 -4.34033900000E-02 -3.66163198000E-01

  91  91   1    8 O     1.06276064000E-01 -3.93823523000E-01 -4.89360100000E-03

  92  92   1    1 H     5.86277720000E-02 -3.44076295000E-01 -1.10610870000E-02

  93  93   1    1 H     1.13948422000E-01 -4.10242260000E-01  6.18491390000E-02

  94  94   1    8 O    -3.20038452000E-01  7.06771230000E-02 -2.45583933000E-01

  95  95   1    1 H    -3.04126642000E-01  6.75740200000E-03 -2.24507424000E-01

  96  96   1    1 H    -2.72453785000E-01  9.25696940000E-02 -2.90744621000E-01

  97  97   1    8 O    -4.88523280000E-02  4.08287171000E-01  8.37451680000E-02

  98  98   1    1 H    -4.68944720000E-02  3.76180695000E-01  1.44969813000E-01

  99  99   1    1 H    -1.08437243000E-01  3.93542051000E-01  5.18821280000E-02

 100 100   1    8 O     6.88672700000E-03  3.42438640000E-01 -2.49242377000E-01

 101 101   1    1 H    -3.40850780000E-02  2.91240482000E-01 -2.27262668000E-01

 102 102   1    1 H     2.45738160000E-02  3.82423563000E-01 -1.95656203000E-01

 103 103   1    8 O     1.26479111000E-01 -1.87653271000E-01  3.55317192000E-01

 104 104   1    1 H     1.77556934000E-01 -1.72697912000E-01  3.99481317000E-01

 105 105   1    1 H     6.79516170000E-02 -1.57696909000E-01  3.76770611000E-01

 106 106   1    8 O     2.15189112000E-01 -3.14498918000E-01 -1.79609535000E-01

 107 107   1    1 H     2.46722269000E-01 -3.57809636000E-01 -2.23347649000E-01

 108 108   1    1 H     1.60845661000E-01 -3.46230558000E-01 -1.50922218000E-01

 109 109   1    8 O     2.94321459000E-01 -2.58696239000E-01  1.71484194000E-01

 110 110   1    1 H     3.26329730000E-01 -2.71664696000E-01  1.11564555000E-01

 111 111   1    1 H     3.27535841000E-01 -2.91010187000E-01  2.22823433000E-01

 112 112   1    8 O    -3.90451392000E-01  1.52290158000E-01 -8.66733060000E-02

 113 113   1    1 H    -3.82457451000E-01  1.44606735000E-01 -1.54938208000E-01

 114 114   1    1 H    -4.44174499000E-01  1.94053819000E-01 -7.43148200000E-02

 115 115   1    8 O     2.46830850000E-02  4.26508157000E-01 -8.72355580000E-02

 116 116   1    1 H    -5.78159000000E-04  3.97295241000E-01 -2.98636900000E-02

 117 117   1    1 H     1.22236280000E-02  4.94522708000E-01 -8.58724590000E-02

 118 118   1    8 O     4.12578408000E-01 -4.19932640000E-02 -1.68352732000E-01

 119 119   1    1 H     3.48898663000E-01 -4.44345320000E-02 -1.41482188000E-01

 120 120   1    1 H     4.15944314000E-01  8.88815100000E-03 -2.15073618000E-01

 121 121   1    8 O    -3.69843081000E-01 -2.54290891000E-01  3.20310930000E-02

 122 122   1    1 H    -3.68105839000E-01 -2.49445009000E-01  1.00998638000E-01

 123 123   1    1 H    -3.98231637000E-01 -1.97027601000E-01  5.61076600000E-03

 124 124   1    8 O    -2.18723763000E-01  1.72901236000E-01 -3.52431240000E-01

 125 125   1    1 H    -2.18941610000E-01  1.41749137000E-01 -4.14177334000E-01

 126 126   1    1 H    -2.75502258000E-01  2.11875073000E-01 -3.46078411000E-01

 127 127   1    8 O     2.19247287000E-01  3.83890399000E-01 -9.76334230000E-02

 128 128   1    1 H     1.53465148000E-01  4.05173690000E-01 -9.92821430000E-02

 129 129   1    1 H     2.59253650000E-01  4.34566416000E-01 -7.28431430000E-02

 130 130   1    8 O    -3.70519444000E-01  1.84924998000E-01  2.10647524000E-01

 131 131   1    1 H    -4.10990546000E-01  2.30743376000E-01  1.78307987000E-01

 132 132   1    1 H    -3.04165370000E-01  2.01522853000E-01  2.00414946000E-01

 133 133   1    8 O    -3.40953132000E-01 -2.28304875000E-01  2.09381246000E-01

 134 134   1    1 H    -3.79854354000E-01 -1.73727671000E-01  2.26441074000E-01

 135 135   1    1 H    -3.43379185000E-01 -2.75131573000E-01  2.60217709000E-01

 136 136   1    8 O     8.95696310000E-02 -4.18151829000E-01  1.94602239000E-01

 137 137   1    1 H     9.90788190000E-02 -3.52357933000E-01  1.75525772000E-01

 138 138   1    1 H     2.33269020000E-02 -4.27761987000E-01  2.11999557000E-01

 139 139   1    8 O    -1.02924680000E-01 -4.29871297000E-01  1.67475812000E-01

 140 140   1    1 H    -1.47156580000E-01 -3.92224597000E-01  1.29935614000E-01

 141 141   1    1 H    -6.97794560000E-02 -4.74401959000E-01  1.26225994000E-01

 142 142   1    8 O     1.63892059000E-01  1.48478184000E-01  4.18936078000E-01

 143 143   1    1 H     2.02203365000E-01  2.05753231000E-01  4.24846989000E-01

 144 144   1    1 H     1.03788460000E-01  1.57442409000E-01  4.51955435000E-01

 145 145   1    8 O    -4.70048480000E-01 -9.38103830000E-02 -1.87652580000E-02

 146 146   1    1 H    -4.43416530000E-01 -4.67782870000E-02  2.43829400000E-02

 147 147   1    1 H    -4.88500453000E-01 -6.30199800000E-02 -7.78805920000E-02

 148 148   1    8 O     3.67484803000E-01 -2.02359662000E-01 -2.59305518000E-01

 149 149   1    1 H     3.09127437000E-01 -2.20792271000E-01 -2.27091848000E-01

 150 150   1    1 H     3.95237107000E-01 -1.47722290000E-01 -2.27248145000E-01

 151 151   1    8 O    -2.63898974000E-01 -3.22897432000E-01 -2.57333140000E-01

 152 152   1    1 H    -1.96045561000E-01 -3.14880668000E-01 -2.68043597000E-01

 153 153   1    1 H    -2.93903746000E-01 -3.45400665000E-01 -3.15439463000E-01

 154 154   1    8 O    -1.70064386000E-01 -3.32843005000E-01  3.19146317000E-01

 155 155   1    1 H    -2.37462050000E-01 -3.39995297000E-01  3.32910780000E-01

 156 156   1    1 H    -1.54366965000E-01 -3.68209576000E-01  2.61824243000E-01

 157 157   1    8 O    -2.27864340000E-01  4.36978637000E-01  7.91302700000E-03

 158 158   1    1 H    -2.42962855000E-01  4.83461621000E-01 -4.10195230000E-02

 159 159   1    1 H    -2.50727885000E-01  3.74698645000E-01 -1.16191900000E-02

 160 160   1    8 O    -2.32723362000E-01 -4.26517839000E-01 -1.22375983000E-01

 161 161   1    1 H    -2.03276693000E-01 -4.76906160000E-01 -1.59483945000E-01

 162 162   1    1 H    -2.55779857000E-01 -3.77063148000E-01 -1.64869949000E-01

 163 163   1    8 O    -1.18875220000E-02  1.55686494000E-01  4.87422284000E-01

 164 164   1    1 H    -3.28243320000E-02  1.30721246000E-01  4.26418252000E-01

 165 165   1    1 H    -3.82649700000E-03  1.03537418000E-01 -4.67873469000E-01

 166 166   1    8 O    -3.51189860000E-02 -1.72557522000E-01  4.81051474000E-01

 167 167   1    1 H    -7.56433400000E-02 -1.57320691000E-01  4.27120203000E-01

 168 168   1    1 H    -2.68954400000E-02 -1.16237543000E-01 -4.79660712000E-01

 169 169   1    8 O     4.24685159000E-01 -2.78433854000E-01 -1.44940770000E-02

 170 170   1    1 H     4.50232024000E-01 -3.42022310000E-01 -5.16746500000E-03

 171 171   1    1 H     4.76715285000E-01 -2.33042871000E-01 -1.84492070000E-02

 172 172   1    8 O    -4.42866726000E-01 -7.55223140000E-02  2.66096807000E-01

 173 173   1    1 H     4.99561540000E-01 -3.75360480000E-02  2.71157770000E-01

 174 174   1    1 H    -4.03959280000E-01 -6.60290320000E-02  3.22480411000E-01

 175 175   1    8 O    -2.33679122000E-01  1.22044717000E-01  4.58020568000E-01

 176 176   1    1 H    -1.77899265000E-01  1.02763543000E-01  4.21965878000E-01

 177 177   1    1 H    -2.90701052000E-01  1.08213863000E-01  4.21409158000E-01

 178 178   1    8 O     3.23447928000E-01  3.61019247000E-01  2.17016259000E-01

 179 179   1    1 H     2.93865018000E-01  3.18376591000E-01  1.71304384000E-01

 180 180   1    1 H     2.74523676000E-01  3.90730790000E-01  2.55833109000E-01

 181 181   1    8 O     6.96086360000E-02  3.20925745000E-01 -4.23660242000E-01

 182 182   1    1 H     4.69636300000E-02  3.21979018000E-01 -3.58322095000E-01

 183 183   1    1 H     3.90886390000E-02  2.69098252000E-01 -4.57799263000E-01

 184 184   1    8 O     4.63932862000E-01  2.68432263000E-01 -3.71681290000E-02

 185 185   1    1 H     4.14292136000E-01  2.20604853000E-01 -3.15691200000E-02

 186 186   1    1 H     4.67351328000E-01  3.05068570000E-01  2.13904850000E-02

 187 187   1    8 O    -1.60785493000E-01  4.41350789000E-01 -2.59110493000E-01

 188 188   1    1 H    -1.90578643000E-01  4.43269916000E-01 -3.21494913000E-01

 189 189   1    1 H    -1.13621998000E-01  3.90788191000E-01 -2.57638817000E-01

 190 190   1    8 O     1.42223559000E-01  4.31887937000E-01  2.87382864000E-01

 191 191   1    1 H     8.65999990000E-02  3.91868434000E-01  2.78026515000E-01

 192 192   1    1 H     1.41206941000E-01  4.83809484000E-01  2.41708334000E-01

 193 193   1    8 O     3.68752464000E-01  2.72224182000E-01 -2.85298450000E-01

 194 194   1    1 H     3.91021944000E-01  2.07682732000E-01 -2.96321500000E-01

 195 195   1    1 H     4.20614536000E-01  3.10547245000E-01 -2.60304156000E-01

 196 196   1    8 O     4.04842424000E-01  2.45240220000E-02  3.66454352000E-01

 197 197   1    1 H     3.72291265000E-01  8.21974180000E-02  3.86386301000E-01

 198 198   1    1 H     3.69633533000E-01 -5.15432500000E-03  3.14853697000E-01

 199 199   1    8 O     2.43793440000E-01 -1.55802679000E-01 -4.64988900000E-01

 200 200   1    1 H     2.64263436000E-01 -2.21644294000E-01 -4.59611887000E-01

 201 201   1    1 H     2.17234106000E-01 -1.34921886000E-01 -4.04642558000E-01

 202 202   1    8 O     2.00979270000E-02 -4.51916706000E-01 -3.05460694000E-01

 203 203   1    1 H     5.02935750000E-02 -4.30448073000E-01 -3.63859554000E-01

 204 204   1    1 H     2.50765920000E-02  4.79254756000E-01 -3.00893518000E-01

 205 205   1    8 O     1.61573200000E-01 -3.73719372000E-01  3.79027919000E-01

 206 206   1    1 H     1.50638672000E-01 -3.29384427000E-01  3.27086316000E-01

 207 207   1    1 H     1.73630158000E-01 -4.36790528000E-01  3.53343430000E-01

 208 208   1    8 O    -3.45461524000E-01 -8.60045510000E-02  4.25468717000E-01

 209 209   1    1 H    -2.81507915000E-01 -1.08743612000E-01  4.12201498000E-01

 210 210   1    1 H    -3.48469885000E-01 -6.22122170000E-02  4.90337974000E-01

 211 211   1    8 O     3.14185633000E-01 -4.71080313000E-01 -5.78615050000E-02

 212 212   1    1 H     3.70356923000E-01 -4.70687497000E-01 -1.75155780000E-02

 213 213   1    1 H     3.06261541000E-01 -4.08834900000E-01 -8.69437130000E-02

 214 214   1    8 O     3.65952267000E-01  2.09943498000E-01  3.77220136000E-01

 215 215   1    1 H     3.10739504000E-01  2.49857881000E-01  3.65325698000E-01

 216 216   1    1 H     4.07976652000E-01  2.41530599000E-01  4.22156753000E-01

 217 217   1    8 O    -4.05817548000E-01 -8.15418020000E-02 -3.95659661000E-01

 218 218   1    1 H    -3.90519167000E-01 -7.85534970000E-02 -3.28279978000E-01

 219 219   1    1 H    -4.72877031000E-01 -6.72614230000E-02 -4.04724164000E-01

 220 220   1    8 O    -2.31724725000E-01  3.22424393000E-01  4.25876056000E-01

 221 221   1    1 H    -2.40369441000E-01  2.55405022000E-01  4.40601119000E-01

 222 222   1    1 H    -1.64893463000E-01  3.39006342000E-01  4.32330546000E-01

 223 223   1    8 O    -4.20392539000E-01  1.37249044000E-01  3.82404199000E-01

 224 224   1    1 H    -4.14615103000E-01  1.73357677000E-01  3.23702428000E-01

 225 225   1    1 H    -4.54676791000E-01  7.84732740000E-02  3.70029807000E-01

 226 226   1    8 O    -4.24649200000E-02  3.89738376000E-01  4.30306300000E-01

 227 227   1    1 H    -8.55391190000E-02  4.42562432000E-01  4.18586139000E-01

 228 228   1    1 H    -1.11745060000E-02  3.98619612000E-01  4.91340069000E-01

 229 229   1    8 O     4.92801372000E-01  1.11211159000E-01 -3.03664668000E-01

 230 230   1    1 H     4.84397325000E-01  1.05986985000E-01 -3.72112838000E-01

 231 231   1    1 H    -4.49815695000E-01  7.75036830000E-02 -2.84848925000E-01

 232 232   1    8 O     5.23323440000E-02 -3.55508067000E-01 -4.71903290000E-01

 233 233   1    1 H     2.46519640000E-02 -2.92496387000E-01 -4.78717401000E-01

 234 234   1    1 H     9.50123450000E-02 -3.67788405000E-01  4.75081087000E-01

 235 235   1    8 O     2.50799809000E-01  3.92237045000E-01 -3.76664108000E-01

 236 236   1    1 H     2.95720520000E-01  3.52465819000E-01 -3.42262288000E-01

 237 237   1    1 H     1.86250752000E-01  3.73448965000E-01 -3.60433481000E-01

 238 238   1    8 O     2.45184893000E-01  3.42694523000E-01  4.18469954000E-01

 239 239   1    1 H     2.35847908000E-01  3.67859637000E-01  4.82208483000E-01

 240 240   1    1 H     1.97134795000E-01  3.68786351000E-01  3.76121220000E-01

 241 241   1    8 O     2.92765410000E-01 -4.25572453000E-01 -3.03973803000E-01

 242 242   1    1 H     2.73964882000E-01 -3.95472935000E-01 -3.63333956000E-01

 243 243   1    1 H     2.88477631000E-01 -4.94280656000E-01 -3.10601188000E-01

 244 244   1    8 O    -4.91725969000E-01  3.24569666000E-01  1.43856373000E-01

 245 245   1    1 H    -4.56047498000E-01  3.83676010000E-01  1.39793357000E-01

 246 246   1    1 H     4.47568068000E-01  3.36373507000E-01  1.74816905000E-01

 247 247   1    8 O    -3.47433903000E-01 -3.48882757000E-01  3.53360720000E-01

 248 248   1    1 H    -3.49961617000E-01 -4.17497597000E-01  3.61650657000E-01

 249 249   1    1 H    -3.89041266000E-01 -3.18541187000E-01  3.99526961000E-01

 250 250   1    8 O    -3.77125390000E-01  3.26751592000E-01 -3.57185834000E-01

 251 251   1    1 H    -3.47679412000E-01  3.84074358000E-01 -3.82288014000E-01

 252 252   1    1 H    -4.05210343000E-01  3.40395029000E-01 -2.95475010000E-01

 253 253   1    8 O    -3.57570351000E-01  4.93113273000E-01  1.56117347000E-01

 254 254   1    1 H    -3.00780791000E-01  4.80322552000E-01  1.18775632000E-01

 255 255   1    1 H    -3.41276790000E-01  4.93863635000E-01  2.23326210000E-01

 256 256   1    8 O     4.12684910000E-01 -3.70569237000E-01  2.86873172000E-01

 257 257   1    1 H     4.29818046000E-01 -4.25710077000E-01  2.48807375000E-01

 258 258   1    1 H     4.32598187000E-01 -3.80662116000E-01  3.52330270000E-01

 259 259   1    8 O    -4.82688438000E-01  3.66069835000E-01 -1.99423916000E-01

 260 260   1    1 H     4.93981203000E-01  3.29439753000E-01 -1.45600531000E-01

 261 261   1    1 H    -4.70919175000E-01  4.31264134000E-01 -1.79568041000E-01

 262 262   1    8 O     2.74996715000E-01 -3.35309170000E-01 -4.71344495000E-01

 263 263   1    1 H     3.28858828000E-01 -3.77336321000E-01 -4.82097139000E-01

 264 264   1    1 H     2.32556692000E-01 -3.37814754000E-01  4.74105963000E-01

 265 265   1    8 O     4.79218794000E-01 -3.57033687000E-01 -2.60862259000E-01

 266 266   1    1 H     4.57376709000E-01 -2.92002600000E-01 -2.52085451000E-01

 267 267   1    1 H     4.29952904000E-01 -3.93817991000E-01 -2.92530965000E-01

 268 268   1    8 O     4.28663804000E-01 -8.74706940000E-02 -4.79390997000E-01

 269 269   1    1 H     3.64959854000E-01 -1.11579078000E-01 -4.67404580000E-01

 270 270   1    1 H     4.31188752000E-01 -5.94341510000E-02  4.57436876000E-01

 271 271   1    8 O    -3.92802755000E-01 -3.47341923000E-01 -3.89969363000E-01

 272 272   1    1 H    -4.38381156000E-01 -3.48402802000E-01 -3.37963443000E-01

 273 273   1    1 H    -3.97759981000E-01 -2.87190606000E-01 -4.23737699000E-01

 274 274   1    8 O    -4.43556920000E-01 -4.69779456000E-01 -1.30107125000E-01

 275 275   1    1 H    -4.80837085000E-01 -4.25125694000E-01 -1.67515232000E-01

 276 276   1    1 H    -3.76630221000E-01 -4.63084988000E-01 -1.46202895000E-01

 277 277   1    8 O    -3.32405928000E-01  4.56284709000E-01  3.37771185000E-01

 278 278   1    1 H    -3.97771738000E-01  4.33731682000E-01  3.39074808000E-01

 279 279   1    1 H    -2.92443135000E-01  4.13252004000E-01  3.74298914000E-01

 280 280   1    8 O    -1.28984695000E-01 -4.41657157000E-01  4.84073667000E-01

 281 281   1    1 H    -1.33002068000E-01 -3.98816020000E-01  4.29929390000E-01

 282 282   1    1 H    -7.52498320000E-02 -4.23698279000E-01 -4.76263685000E-01

 283 283   1    8 O    -4.44455971000E-01 -2.37202017000E-01  4.58329703000E-01

 284 284   1    1 H    -4.07154367000E-01 -1.79817700000E-01  4.68261444000E-01

 285 285   1    1 H     4.88553013000E-01 -2.23142942000E-01  4.68207501000E-01

 286 286   1    8 O     4.96699102000E-01 -4.64459844000E-01  4.30161070000E-02

 287 287   1    1 H    -4.68401142000E-01 -4.72523635000E-01 -1.61455630000E-02

 288 288   1    1 H    -4.58755023000E-01 -4.61528247000E-01  9.58380880000E-02

 289 289   1    8 O    -2.81142762000E-01  4.84851691000E-01 -4.22864928000E-01

 290 290   1    1 H    -3.19137327000E-01 -4.58010194000E-01 -4.14222287000E-01

 291 291   1    1 H    -2.24657496000E-01 -4.99907329000E-01 -4.59746744000E-01

 292 292   1    8 O    -4.91491525000E-01  2.48211235000E-01 -4.87932668000E-01

 293 293   1    1 H    -4.48635864000E-01  2.67327815000E-01 -4.37128709000E-01

 294 294   1    1 H    -4.59820743000E-01  2.02196449000E-01  4.71290552000E-01

 295 295   1    8 O     4.63732996000E-01  4.09047906000E-01  4.05436489000E-01

 296 296   1    1 H     4.12165536000E-01  3.96835342000E-01  3.60999191000E-01

 297 297   1    1 H     4.79191131000E-01  3.50804650000E-01  4.39375644000E-01

 298 298   1    8 O     4.22236284000E-01 -4.39744255000E-01 -4.97054572000E-01

 299 299   1    1 H     4.77478786000E-01 -4.11988492000E-01 -4.66054621000E-01

 300 300   1    1 H     4.38781579000E-01  4.97995117000E-01  4.77786538000E-01

 NUMBER OF SYMMETRY OPERATORS         :    1
 *******************************************************************************
 * GEOMETRY EDITING - INPUT COORDINATES ARE GIVEN IN ANGSTROM         
 *******************************************************************************

 GCALCO - MAX INDICES DIRECT LATTICE VECTOR    14    14    14
 NO.OF VECTORS CREATED 6999 STARS  120 RMAX   324.46489 BOHR

 GEOMETRY FOR WAVE FUNCTION - DIMENSIONALITY OF THE SYSTEM    3
 (NON PERIODIC DIRECTION: LATTICE PARAMETER FORMALLY SET TO 500)
 *******************************************************************************
 LATTICE PARAMETERS (ANGSTROMS AND DEGREES) - BOHR = 0.5291772083 ANGSTROM
 PRIMITIVE CELL - CENTRING CODE 1/0 VOLUME=  3023.276357 - DENSITY  0.989 g/cm^3
         A              B              C           ALPHA      BETA       GAMMA 
    14.45970000    14.45970000    14.45970000    90.000000  90.000000  90.000000
 *******************************************************************************
 ATOMS IN THE ASYMMETRIC UNIT  300 - ATOMS IN THE UNIT CELL:  300
     ATOM                 X/A                 Y/B                 Z/C    
 *******************************************************************************
      1 T   8 O    -4.449608000000E-03 -1.459230000000E-04  3.872830000000E-04
      2 T   1 H     3.042732600000E-02  3.843855700000E-02 -4.519734200000E-02
      3 T   1 H     4.019447200000E-02 -3.612730600000E-02  3.905544400000E-02
      4 T   8 O    -1.568345120000E-01 -9.974411600000E-02 -4.229963300000E-02
      5 T   1 H    -1.704419870000E-01 -1.346293490000E-01  1.584680200000E-02
      6 T   1 H    -1.086633890000E-01 -5.175833500000E-02 -2.965068400000E-02
      7 T   8 O     5.825224600000E-02  1.249521080000E-01 -1.379620600000E-01
      8 T   1 H     1.111281700000E-01  1.569970330000E-01 -1.689523300000E-01
      9 T   1 H    -4.204790000000E-04  1.589998410000E-01 -1.514277610000E-01
     10 T   8 O    -6.020111100000E-02  8.236892900000E-02  1.888310270000E-01
     11 T   1 H    -6.712034100000E-02  4.309771300000E-02  1.323243220000E-01
     12 T   1 H    -1.177065000000E-03  1.182009310000E-01  1.849104750000E-01
     13 T   8 O     4.023734900000E-02 -2.001832680000E-01 -1.312454620000E-01
     14 T   1 H     2.605172000000E-03 -1.943117770000E-01 -7.351812300000E-02
     15 T   1 H     1.074482870000E-01 -1.961161020000E-01 -1.154581350000E-01
     16 T   8 O    -1.147741700000E-02 -2.405236620000E-01  3.190937600000E-02
     17 T   1 H    -7.295310400000E-02 -2.668582340000E-01  4.952730700000E-02
     18 T   1 H     2.821151200000E-02 -2.349384840000E-01  8.827084900000E-02
     19 T   8 O     1.014972650000E-01  1.724572430000E-01  1.830777960000E-01
     20 T   1 H     1.284577140000E-01  1.126288930000E-01  2.049143480000E-01
     21 T   1 H     1.525536490000E-01  2.159519220000E-01  1.662102260000E-01
     22 T   8 O    -2.100347860000E-01 -9.408148200000E-02  1.508240140000E-01
     23 T   1 H    -2.537957220000E-01 -4.517866900000E-02  1.289923030000E-01
     24 T   1 H    -2.459317970000E-01 -1.486420880000E-01  1.735748320000E-01
     25 T   8 O     2.203392880000E-01  6.923380000000E-03 -1.753770830000E-01
     26 T   1 H     1.764365790000E-01  5.856553000000E-02 -1.616368250000E-01
     27 T   1 H     1.878711180000E-01 -4.172493200000E-02 -2.122844870000E-01
     28 T   8 O     1.995311110000E-01 -1.975324520000E-01 -2.364364400000E-02
     29 T   1 H     2.298920450000E-01 -2.494069720000E-01 -5.785320600000E-02
     30 T   1 H     1.619134560000E-01 -2.231588480000E-01  2.842590100000E-02
     31 T   8 O     1.140708310000E-01 -2.222169200000E-01  1.577646840000E-01
     32 T   1 H     1.826192800000E-01 -2.278325280000E-01  1.650179460000E-01
     33 T   1 H     9.007517400000E-02 -1.745070780000E-01  2.017095790000E-01
     34 T   8 O    -1.143813500000E-01  2.115735460000E-01 -1.991894710000E-01
     35 T   1 H    -1.506414380000E-01  2.250198830000E-01 -1.418521820000E-01
     36 T   1 H    -1.573054770000E-01  1.907128090000E-01 -2.492437600000E-01
     37 T   8 O    -2.195875430000E-01  2.245350870000E-01 -3.649038400000E-02
     38 T   1 H    -2.734614130000E-01  1.849658020000E-01 -5.423902300000E-02
     39 T   1 H    -2.145494030000E-01  2.270413630000E-01  3.243981500000E-02
     40 T   8 O    -1.834802940000E-01  2.141870160000E-01  1.579610920000E-01
     41 T   1 H    -1.515750670000E-01  1.531290410000E-01  1.518745200000E-01
     42 T   1 H    -1.471807850000E-01  2.550364120000E-01  2.003499380000E-01
     43 T   8 O     3.169242790000E-01 -5.546726400000E-02  1.197258600000E-02
     44 T   1 H     2.748203630000E-01 -1.059240510000E-01 -9.579728000000E-03
     45 T   1 H     3.816489970000E-01 -7.952862100000E-02  1.582052200000E-02
     46 T   8 O     1.637385280000E-01  2.042711800000E-02  2.781406250000E-01
     47 T   1 H     2.193821450000E-01 -6.666113000000E-03  2.472734570000E-01
     48 T   1 H     1.813135820000E-01  4.406799600000E-02  3.407124630000E-01
     49 T   8 O     1.118612420000E-01 -1.281548030000E-01 -2.827596700000E-01
     50 T   1 H     1.744337710000E-01 -1.572964860000E-01 -2.784525270000E-01
     51 T   1 H     7.311562500000E-02 -1.487499740000E-01 -2.293035130000E-01
     52 T   8 O     3.083023850000E-01  1.338430260000E-01 -3.170812700000E-02
     53 T   1 H     2.956728010000E-01  6.872410900000E-02 -1.213441500000E-02
     54 T   1 H     2.795016490000E-01  1.453245920000E-01 -9.352891100000E-02
     55 T   8 O     2.071993190000E-01  2.136240720000E-01 -1.853032910000E-01
     56 T   1 H     2.598899010000E-01  2.207708320000E-01 -2.295268920000E-01
     57 T   1 H     1.931340210000E-01  2.747373740000E-01 -1.561415520000E-01
     58 T   8 O    -2.897044890000E-01 -1.130659700000E-01 -1.868793960000E-01
     59 T   1 H    -2.557376710000E-01 -1.047552850000E-01 -1.272108000000E-01
     60 T   1 H    -3.109794810000E-01 -1.786440940000E-01 -1.923490810000E-01
     61 T   8 O    -3.593663770000E-01  2.229368500000E-02  8.655297100000E-02
     62 T   1 H    -3.357780590000E-01  5.645967800000E-02  3.124200400000E-02
     63 T   1 H    -3.645504400000E-01  6.581948400000E-02  1.400478570000E-01
     64 T   8 O    -1.464428720000E-01 -1.294349120000E-01 -3.206228340000E-01
     65 T   1 H    -1.905544380000E-01 -1.200875540000E-01 -2.681832960000E-01
     66 T   1 H    -1.027040670000E-01 -1.807056850000E-01 -3.050879340000E-01
     67 T   8 O    -9.038569300000E-02  5.390568300000E-02  3.620151180000E-01
     68 T   1 H    -8.361445900000E-02  7.506449000000E-02  2.965206750000E-01
     69 T   1 H    -9.865557400000E-02 -1.474581100000E-02  3.633194330000E-01
     70 T   8 O     2.362759950000E-01  2.843122610000E-01  6.818052900000E-02
     71 T   1 H     2.647344000000E-01  2.371591390000E-01  2.635047800000E-02
     72 T   1 H     2.132769010000E-01  3.376010570000E-01  3.057117400000E-02
     73 T   8 O    -6.662033100000E-02 -2.697123730000E-01 -2.587951340000E-01
     74 T   1 H    -3.178005100000E-02 -2.513136510000E-01 -2.019564720000E-01
     75 T   1 H    -4.130445300000E-02 -3.293228770000E-01 -2.830611980000E-01
     76 T   8 O     3.152050180000E-01 -6.016099900000E-02  2.147568760000E-01
     77 T   1 H     3.115486490000E-01 -6.011881300000E-02  1.456938940000E-01
     78 T   1 H     3.326299990000E-01 -1.233289760000E-01  2.368762840000E-01
     79 T   8 O    -1.929991630000E-01 -3.372352120000E-01  4.323741200000E-02
     80 T   1 H    -1.768473760000E-01 -3.590641580000E-01 -2.036833400000E-02
     81 T   1 H    -2.601250370000E-01 -3.207542340000E-01  4.559638200000E-02
     82 T   8 O    -1.679612990000E-01 -1.262287600000E-01  3.342206270000E-01
     83 T   1 H    -1.769123840000E-01 -1.101426720000E-01  2.675553430000E-01
     84 T   1 H    -1.735139730000E-01 -1.946831540000E-01  3.423584170000E-01
     85 T   8 O    -3.338243500000E-02  3.141966980000E-01  2.409323840000E-01
     86 T   1 H     1.214410000000E-03  2.561809720000E-01  2.260904440000E-01
     87 T   1 H    -3.411550700000E-02  3.237114190000E-01  3.094303480000E-01
     88 T   8 O     6.266382000000E-03 -3.366736500000E-02 -4.026577310000E-01
     89 T   1 H     5.996874100000E-02 -6.034980000000E-02 -3.682026600000E-01
     90 T   1 H    -5.166773900000E-02 -4.340339000000E-02 -3.661631980000E-01
     91 T   8 O     1.062760640000E-01 -3.938235230000E-01 -4.893601000000E-03
     92 T   1 H     5.862777200000E-02 -3.440762950000E-01 -1.106108700000E-02
     93 T   1 H     1.139484220000E-01 -4.102422600000E-01  6.184913900000E-02
     94 T   8 O    -3.200384520000E-01  7.067712300000E-02 -2.455839330000E-01
     95 T   1 H    -3.041266420000E-01  6.757402000000E-03 -2.245074240000E-01
     96 T   1 H    -2.724537850000E-01  9.256969400000E-02 -2.907446210000E-01
     97 T   8 O    -4.885232800000E-02  4.082871710000E-01  8.374516800000E-02
     98 T   1 H    -4.689447200000E-02  3.761806950000E-01  1.449698130000E-01
     99 T   1 H    -1.084372430000E-01  3.935420510000E-01  5.188212800000E-02
    100 T   8 O     6.886727000000E-03  3.424386400000E-01 -2.492423770000E-01
    101 T   1 H    -3.408507800000E-02  2.912404820000E-01 -2.272626680000E-01
    102 T   1 H     2.457381600000E-02  3.824235630000E-01 -1.956562030000E-01
    103 T   8 O     1.264791110000E-01 -1.876532710000E-01  3.553171920000E-01
    104 T   1 H     1.775569340000E-01 -1.726979120000E-01  3.994813170000E-01
    105 T   1 H     6.795161700000E-02 -1.576969090000E-01  3.767706110000E-01
    106 T   8 O     2.151891120000E-01 -3.144989180000E-01 -1.796095350000E-01
    107 T   1 H     2.467222690000E-01 -3.578096360000E-01 -2.233476490000E-01
    108 T   1 H     1.608456610000E-01 -3.462305580000E-01 -1.509222180000E-01
    109 T   8 O     2.943214590000E-01 -2.586962390000E-01  1.714841940000E-01
    110 T   1 H     3.263297300000E-01 -2.716646960000E-01  1.115645550000E-01
    111 T   1 H     3.275358410000E-01 -2.910101870000E-01  2.228234330000E-01
    112 T   8 O    -3.904513920000E-01  1.522901580000E-01 -8.667330600000E-02
    113 T   1 H    -3.824574510000E-01  1.446067350000E-01 -1.549382080000E-01
    114 T   1 H    -4.441744990000E-01  1.940538190000E-01 -7.431482000000E-02
    115 T   8 O     2.468308500000E-02  4.265081570000E-01 -8.723555800000E-02
    116 T   1 H    -5.781590000000E-04  3.972952410000E-01 -2.986369000000E-02
    117 T   1 H     1.222362800000E-02  4.945227080000E-01 -8.587245900000E-02
    118 T   8 O     4.125784080000E-01 -4.199326400000E-02 -1.683527320000E-01
    119 T   1 H     3.488986630000E-01 -4.443453200000E-02 -1.414821880000E-01
    120 T   1 H     4.159443140000E-01  8.888151000000E-03 -2.150736180000E-01
    121 T   8 O    -3.698430810000E-01 -2.542908910000E-01  3.203109300000E-02
    122 T   1 H    -3.681058390000E-01 -2.494450090000E-01  1.009986380000E-01
    123 T   1 H    -3.982316370000E-01 -1.970276010000E-01  5.610766000000E-03
    124 T   8 O    -2.187237630000E-01  1.729012360000E-01 -3.524312400000E-01
    125 T   1 H    -2.189416100000E-01  1.417491370000E-01 -4.141773340000E-01
    126 T   1 H    -2.755022580000E-01  2.118750730000E-01 -3.460784110000E-01
    127 T   8 O     2.192472870000E-01  3.838903990000E-01 -9.763342300000E-02
    128 T   1 H     1.534651480000E-01  4.051736900000E-01 -9.928214300000E-02
    129 T   1 H     2.592536500000E-01  4.345664160000E-01 -7.284314300000E-02
    130 T   8 O    -3.705194440000E-01  1.849249980000E-01  2.106475240000E-01
    131 T   1 H    -4.109905460000E-01  2.307433760000E-01  1.783079870000E-01
    132 T   1 H    -3.041653700000E-01  2.015228530000E-01  2.004149460000E-01
    133 T   8 O    -3.409531320000E-01 -2.283048750000E-01  2.093812460000E-01
    134 T   1 H    -3.798543540000E-01 -1.737276710000E-01  2.264410740000E-01
    135 T   1 H    -3.433791850000E-01 -2.751315730000E-01  2.602177090000E-01
    136 T   8 O     8.956963100000E-02 -4.181518290000E-01  1.946022390000E-01
    137 T   1 H     9.907881900000E-02 -3.523579330000E-01  1.755257720000E-01
    138 T   1 H     2.332690200000E-02 -4.277619870000E-01  2.119995570000E-01
    139 T   8 O    -1.029246800000E-01 -4.298712970000E-01  1.674758120000E-01
    140 T   1 H    -1.471565800000E-01 -3.922245970000E-01  1.299356140000E-01
    141 T   1 H    -6.977945600000E-02 -4.744019590000E-01  1.262259940000E-01
    142 T   8 O     1.638920590000E-01  1.484781840000E-01  4.189360780000E-01
    143 T   1 H     2.022033650000E-01  2.057532310000E-01  4.248469890000E-01
    144 T   1 H     1.037884600000E-01  1.574424090000E-01  4.519554350000E-01
    145 T   8 O    -4.700484800000E-01 -9.381038300000E-02 -1.876525800000E-02
    146 T   1 H    -4.434165300000E-01 -4.677828700000E-02  2.438294000000E-02
    147 T   1 H    -4.885004530000E-01 -6.301998000000E-02 -7.788059200000E-02
    148 T   8 O     3.674848030000E-01 -2.023596620000E-01 -2.593055180000E-01
    149 T   1 H     3.091274370000E-01 -2.207922710000E-01 -2.270918480000E-01
    150 T   1 H     3.952371070000E-01 -1.477222900000E-01 -2.272481450000E-01
    151 T   8 O    -2.638989740000E-01 -3.228974320000E-01 -2.573331400000E-01
    152 T   1 H    -1.960455610000E-01 -3.148806680000E-01 -2.680435970000E-01
    153 T   1 H    -2.939037460000E-01 -3.454006650000E-01 -3.154394630000E-01
    154 T   8 O    -1.700643860000E-01 -3.328430050000E-01  3.191463170000E-01
    155 T   1 H    -2.374620500000E-01 -3.399952970000E-01  3.329107800000E-01
    156 T   1 H    -1.543669650000E-01 -3.682095760000E-01  2.618242430000E-01
    157 T   8 O    -2.278643400000E-01  4.369786370000E-01  7.913027000000E-03
    158 T   1 H    -2.429628550000E-01  4.834616210000E-01 -4.101952300000E-02
    159 T   1 H    -2.507278850000E-01  3.746986450000E-01 -1.161919000000E-02
    160 T   8 O    -2.327233620000E-01 -4.265178390000E-01 -1.223759830000E-01
    161 T   1 H    -2.032766930000E-01 -4.769061600000E-01 -1.594839450000E-01
    162 T   1 H    -2.557798570000E-01 -3.770631480000E-01 -1.648699490000E-01
    163 T   8 O    -1.188752200000E-02  1.556864940000E-01  4.874222840000E-01
    164 T   1 H    -3.282433200000E-02  1.307212460000E-01  4.264182520000E-01
    165 T   1 H    -3.826497000000E-03  1.035374180000E-01 -4.678734690000E-01
    166 T   8 O    -3.511898600000E-02 -1.725575220000E-01  4.810514740000E-01
    167 T   1 H    -7.564334000000E-02 -1.573206910000E-01  4.271202030000E-01
    168 T   1 H    -2.689544000000E-02 -1.162375430000E-01 -4.796607120000E-01
    169 T   8 O     4.246851590000E-01 -2.784338540000E-01 -1.449407700000E-02
    170 T   1 H     4.502320240000E-01 -3.420223100000E-01 -5.167465000000E-03
    171 T   1 H     4.767152850000E-01 -2.330428710000E-01 -1.844920700000E-02
    172 T   8 O    -4.428667260000E-01 -7.552231400000E-02  2.660968070000E-01
    173 T   1 H     4.995615400000E-01 -3.753604800000E-02  2.711577700000E-01
    174 T   1 H    -4.039592800000E-01 -6.602903200000E-02  3.224804110000E-01
    175 T   8 O    -2.336791220000E-01  1.220447170000E-01  4.580205680000E-01
    176 T   1 H    -1.778992650000E-01  1.027635430000E-01  4.219658780000E-01
    177 T   1 H    -2.907010520000E-01  1.082138630000E-01  4.214091580000E-01
    178 T   8 O     3.234479280000E-01  3.610192470000E-01  2.170162590000E-01
    179 T   1 H     2.938650180000E-01  3.183765910000E-01  1.713043840000E-01
    180 T   1 H     2.745236760000E-01  3.907307900000E-01  2.558331090000E-01
    181 T   8 O     6.960863600000E-02  3.209257450000E-01 -4.236602420000E-01
    182 T   1 H     4.696363000000E-02  3.219790180000E-01 -3.583220950000E-01
    183 T   1 H     3.908863900000E-02  2.690982520000E-01 -4.577992630000E-01
    184 T   8 O     4.639328620000E-01  2.684322630000E-01 -3.716812900000E-02
    185 T   1 H     4.142921360000E-01  2.206048530000E-01 -3.156912000000E-02
    186 T   1 H     4.673513280000E-01  3.050685700000E-01  2.139048500000E-02
    187 T   8 O    -1.607854930000E-01  4.413507890000E-01 -2.591104930000E-01
    188 T   1 H    -1.905786430000E-01  4.432699160000E-01 -3.214949130000E-01
    189 T   1 H    -1.136219980000E-01  3.907881910000E-01 -2.576388170000E-01
    190 T   8 O     1.422235590000E-01  4.318879370000E-01  2.873828640000E-01
    191 T   1 H     8.659999900000E-02  3.918684340000E-01  2.780265150000E-01
    192 T   1 H     1.412069410000E-01  4.838094840000E-01  2.417083340000E-01
    193 T   8 O     3.687524640000E-01  2.722241820000E-01 -2.852984500000E-01
    194 T   1 H     3.910219440000E-01  2.076827320000E-01 -2.963215000000E-01
    195 T   1 H     4.206145360000E-01  3.105472450000E-01 -2.603041560000E-01
    196 T   8 O     4.048424240000E-01  2.452402200000E-02  3.664543520000E-01
    197 T   1 H     3.722912650000E-01  8.219741800000E-02  3.863863010000E-01
    198 T   1 H     3.696335330000E-01 -5.154325000000E-03  3.148536970000E-01
    199 T   8 O     2.437934400000E-01 -1.558026790000E-01 -4.649889000000E-01
    200 T   1 H     2.642634360000E-01 -2.216442940000E-01 -4.596118870000E-01
    201 T   1 H     2.172341060000E-01 -1.349218860000E-01 -4.046425580000E-01
    202 T   8 O     2.009792700000E-02 -4.519167060000E-01 -3.054606940000E-01
    203 T   1 H     5.029357500000E-02 -4.304480730000E-01 -3.638595540000E-01
    204 T   1 H     2.507659200000E-02  4.792547560000E-01 -3.008935180000E-01
    205 T   8 O     1.615732000000E-01 -3.737193720000E-01  3.790279190000E-01
    206 T   1 H     1.506386720000E-01 -3.293844270000E-01  3.270863160000E-01
    207 T   1 H     1.736301580000E-01 -4.367905280000E-01  3.533434300000E-01
    208 T   8 O    -3.454615240000E-01 -8.600455100000E-02  4.254687170000E-01
    209 T   1 H    -2.815079150000E-01 -1.087436120000E-01  4.122014980000E-01
    210 T   1 H    -3.484698850000E-01 -6.221221700000E-02  4.903379740000E-01
    211 T   8 O     3.141856330000E-01 -4.710803130000E-01 -5.786150500000E-02
    212 T   1 H     3.703569230000E-01 -4.706874970000E-01 -1.751557800000E-02
    213 T   1 H     3.062615410000E-01 -4.088349000000E-01 -8.694371300000E-02
    214 T   8 O     3.659522670000E-01  2.099434980000E-01  3.772201360000E-01
    215 T   1 H     3.107395040000E-01  2.498578810000E-01  3.653256980000E-01
    216 T   1 H     4.079766520000E-01  2.415305990000E-01  4.221567530000E-01
    217 T   8 O    -4.058175480000E-01 -8.154180200000E-02 -3.956596610000E-01
    218 T   1 H    -3.905191670000E-01 -7.855349700000E-02 -3.282799780000E-01
    219 T   1 H    -4.728770310000E-01 -6.726142300000E-02 -4.047241640000E-01
    220 T   8 O    -2.317247250000E-01  3.224243930000E-01  4.258760560000E-01
    221 T   1 H    -2.403694410000E-01  2.554050220000E-01  4.406011190000E-01
    222 T   1 H    -1.648934630000E-01  3.390063420000E-01  4.323305460000E-01
    223 T   8 O    -4.203925390000E-01  1.372490440000E-01  3.824041990000E-01
    224 T   1 H    -4.146151030000E-01  1.733576770000E-01  3.237024280000E-01
    225 T   1 H    -4.546767910000E-01  7.847327400000E-02  3.700298070000E-01
    226 T   8 O    -4.246492000000E-02  3.897383760000E-01  4.303063000000E-01
    227 T   1 H    -8.553911900000E-02  4.425624320000E-01  4.185861390000E-01
    228 T   1 H    -1.117450600000E-02  3.986196120000E-01  4.913400690000E-01
    229 T   8 O     4.928013720000E-01  1.112111590000E-01 -3.036646680000E-01
    230 T   1 H     4.843973250000E-01  1.059869850000E-01 -3.721128380000E-01
    231 T   1 H    -4.498156950000E-01  7.750368300000E-02 -2.848489250000E-01
    232 T   8 O     5.233234400000E-02 -3.555080670000E-01 -4.719032900000E-01
    233 T   1 H     2.465196400000E-02 -2.924963870000E-01 -4.787174010000E-01
    234 T   1 H     9.501234500000E-02 -3.677884050000E-01  4.750810870000E-01
    235 T   8 O     2.507998090000E-01  3.922370450000E-01 -3.766641080000E-01
    236 T   1 H     2.957205200000E-01  3.524658190000E-01 -3.422622880000E-01
    237 T   1 H     1.862507520000E-01  3.734489650000E-01 -3.604334810000E-01
    238 T   8 O     2.451848930000E-01  3.426945230000E-01  4.184699540000E-01
    239 T   1 H     2.358479080000E-01  3.678596370000E-01  4.822084830000E-01
    240 T   1 H     1.971347950000E-01  3.687863510000E-01  3.761212200000E-01
    241 T   8 O     2.927654100000E-01 -4.255724530000E-01 -3.039738030000E-01
    242 T   1 H     2.739648820000E-01 -3.954729350000E-01 -3.633339560000E-01
    243 T   1 H     2.884776310000E-01 -4.942806560000E-01 -3.106011880000E-01
    244 T   8 O    -4.917259690000E-01  3.245696660000E-01  1.438563730000E-01
    245 T   1 H    -4.560474980000E-01  3.836760100000E-01  1.397933570000E-01
    246 T   1 H     4.475680680000E-01  3.363735070000E-01  1.748169050000E-01
    247 T   8 O    -3.474339030000E-01 -3.488827570000E-01  3.533607200000E-01
    248 T   1 H    -3.499616170000E-01 -4.174975970000E-01  3.616506570000E-01
    249 T   1 H    -3.890412660000E-01 -3.185411870000E-01  3.995269610000E-01
    250 T   8 O    -3.771253900000E-01  3.267515920000E-01 -3.571858340000E-01
    251 T   1 H    -3.476794120000E-01  3.840743580000E-01 -3.822880140000E-01
    252 T   1 H    -4.052103430000E-01  3.403950290000E-01 -2.954750100000E-01
    253 T   8 O    -3.575703510000E-01  4.931132730000E-01  1.561173470000E-01
    254 T   1 H    -3.007807910000E-01  4.803225520000E-01  1.187756320000E-01
    255 T   1 H    -3.412767900000E-01  4.938636350000E-01  2.233262100000E-01
    256 T   8 O     4.126849100000E-01 -3.705692370000E-01  2.868731720000E-01
    257 T   1 H     4.298180460000E-01 -4.257100770000E-01  2.488073750000E-01
    258 T   1 H     4.325981870000E-01 -3.806621160000E-01  3.523302700000E-01
    259 T   8 O    -4.826884380000E-01  3.660698350000E-01 -1.994239160000E-01
    260 T   1 H     4.939812030000E-01  3.294397530000E-01 -1.456005310000E-01
    261 T   1 H    -4.709191750000E-01  4.312641340000E-01 -1.795680410000E-01
    262 T   8 O     2.749967150000E-01 -3.353091700000E-01 -4.713444950000E-01
    263 T   1 H     3.288588280000E-01 -3.773363210000E-01 -4.820971390000E-01
    264 T   1 H     2.325566920000E-01 -3.378147540000E-01  4.741059630000E-01
    265 T   8 O     4.792187940000E-01 -3.570336870000E-01 -2.608622590000E-01
    266 T   1 H     4.573767090000E-01 -2.920026000000E-01 -2.520854510000E-01
    267 T   1 H     4.299529040000E-01 -3.938179910000E-01 -2.925309650000E-01
    268 T   8 O     4.286638040000E-01 -8.747069400000E-02 -4.793909970000E-01
    269 T   1 H     3.649598540000E-01 -1.115790780000E-01 -4.674045800000E-01
    270 T   1 H     4.311887520000E-01 -5.943415100000E-02  4.574368760000E-01
    271 T   8 O    -3.928027550000E-01 -3.473419230000E-01 -3.899693630000E-01
    272 T   1 H    -4.383811560000E-01 -3.484028020000E-01 -3.379634430000E-01
    273 T   1 H    -3.977599810000E-01 -2.871906060000E-01 -4.237376990000E-01
    274 T   8 O    -4.435569200000E-01 -4.697794560000E-01 -1.301071250000E-01
    275 T   1 H    -4.808370850000E-01 -4.251256940000E-01 -1.675152320000E-01
    276 T   1 H    -3.766302210000E-01 -4.630849880000E-01 -1.462028950000E-01
    277 T   8 O    -3.324059280000E-01  4.562847090000E-01  3.377711850000E-01
    278 T   1 H    -3.977717380000E-01  4.337316820000E-01  3.390748080000E-01
    279 T   1 H    -2.924431350000E-01  4.132520040000E-01  3.742989140000E-01
    280 T   8 O    -1.289846950000E-01 -4.416571570000E-01  4.840736670000E-01
    281 T   1 H    -1.330020680000E-01 -3.988160200000E-01  4.299293900000E-01
    282 T   1 H    -7.524983200000E-02 -4.236982790000E-01 -4.762636850000E-01
    283 T   8 O    -4.444559710000E-01 -2.372020170000E-01  4.583297030000E-01
    284 T   1 H    -4.071543670000E-01 -1.798177000000E-01  4.682614440000E-01
    285 T   1 H     4.885530130000E-01 -2.231429420000E-01  4.682075010000E-01
    286 T   8 O     4.966991020000E-01 -4.644598440000E-01  4.301610700000E-02
    287 T   1 H    -4.684011420000E-01 -4.725236350000E-01 -1.614556300000E-02
    288 T   1 H    -4.587550230000E-01 -4.615282470000E-01  9.583808800000E-02
    289 T   8 O    -2.811427620000E-01  4.848516910000E-01 -4.228649280000E-01
    290 T   1 H    -3.191373270000E-01 -4.580101940000E-01 -4.142222870000E-01
    291 T   1 H    -2.246574960000E-01 -4.999073290000E-01 -4.597467440000E-01
    292 T   8 O    -4.914915250000E-01  2.482112350000E-01 -4.879326680000E-01
    293 T   1 H    -4.486358640000E-01  2.673278150000E-01 -4.371287090000E-01
    294 T   1 H    -4.598207430000E-01  2.021964490000E-01  4.712905520000E-01
    295 T   8 O     4.637329960000E-01  4.090479060000E-01  4.054364890000E-01
    296 T   1 H     4.121655360000E-01  3.968353420000E-01  3.609991910000E-01
    297 T   1 H     4.791911310000E-01  3.508046500000E-01  4.393756440000E-01
    298 T   8 O     4.222362840000E-01 -4.397442550000E-01 -4.970545720000E-01
    299 T   1 H     4.774787860000E-01 -4.119884920000E-01 -4.660546210000E-01
    300 T   1 H     4.387815790000E-01  4.979951170000E-01  4.777865380000E-01

 T = ATOM BELONGING TO THE ASYMMETRIC UNIT

 ****    1 SYMMOPS - TRANSLATORS IN FRACTIONAL UNITS
 **** MATRICES AND TRANSLATORS IN THE CRYSTALLOGRAPHIC REFERENCE FRAME
   V INV                    ROTATION MATRICES                   TRANSLATORS
   1   1  1.00  0.00  0.00  0.00  1.00  0.00 -0.00 -0.00  1.00  0.00  0.00  0.00

 DIRECT LATTICE VECTORS CARTESIAN COMPONENTS (ANGSTROM)
          X                    Y                    Z
   0.144597000000E+02   0.885401266082E-15   0.000000000000E+00
   0.000000000000E+00   0.144597000000E+02   0.000000000000E+00
   0.885401266082E-15   0.885401266082E-15   0.144597000000E+02


 CARTESIAN COORDINATES - PRIMITIVE CELL
 *******************************************************************************
 *      ATOM          X(ANGSTROM)         Y(ANGSTROM)         Z(ANGSTROM)
 *******************************************************************************
    1     8 O    -6.433999679760E-02 -2.110002803100E-03  5.599995995100E-03
    2     1 H     4.399700057622E-01  5.558100026529E-01 -6.535400061174E-01
    3     1 H     5.812000067784E-01 -5.223900065682E-01  5.647300036068E-01
    4     8 O    -2.267779993166E+00 -1.442269994125E+00 -6.116400032901E-01
    5     1 H    -2.464539999424E+00 -1.946699997735E+00  2.291400028794E-01
    6     1 H    -1.571240005923E+00 -7.484099965995E-01 -4.287399954348E-01
    7     8 O     8.423100014862E-01  1.806769996048E+00 -1.994889998982E+00
    8     1 H     1.606879999749E+00  2.270129998070E+00 -2.443000006101E+00
    9     1 H    -6.080000196300E-03  2.299090000908E+00 -2.189599995732E+00
   10     8 O    -8.704900047267E-01  1.191030002661E+00  2.730440001112E+00
   11     1 H    -9.705399947577E-01  6.231800006661E-01  1.913369998823E+00
   12     1 H    -1.702000678050E-02  1.709150001981E+00  2.673749995357E+00
   13     8 O     5.818199953353E-01 -2.894590000300E+00 -1.897770006881E+00
   14     1 H     3.767000556840E-02 -2.809690001887E+00 -1.063050003143E+00
   15     1 H     1.553669995534E+00 -2.835780000089E+00 -1.669489994660E+00
   16     8 O    -1.659600065949E-01 -3.477899995421E+00  4.614000041472E-01
   17     1 H    -1.054879997909E+00 -3.858690006170E+00  7.161500010279E-01
   18     1 H     4.079300000664E-01 -3.397139997095E+00  1.276369995285E+00
   19     8 O     1.467620002721E+00  2.493679996607E+00  2.647250006821E+00
   20     1 H     1.857460007126E+00  1.628580004112E+00  2.962999997776E+00
   21     1 H     2.205879998445E+00  3.122600006543E+00  2.403350004892E+00
   22     8 O    -3.037039995124E+00 -1.360390005275E+00  2.180869995236E+00
   23     1 H    -3.669810001403E+00 -6.532700001393E-01  1.865190003689E+00
   24     1 H    -3.556100005081E+00 -2.149319999854E+00  2.509839998270E+00
   25     8 O     3.186040002694E+00  1.001099977860E-01 -2.535900007055E+00
   26     1 H     2.551220001366E+00  8.468399941410E-01 -2.337219998453E+00
   27     1 H     2.716560004945E+00 -6.033299992404E-01 -3.069569996674E+00
   28     8 O     2.885160005727E+00 -2.856259996184E+00 -3.418799991468E-01
   29     1 H     3.324170003087E+00 -3.606349993028E+00 -8.365400027982E-01
   30     1 H     2.341219999723E+00 -3.226809994426E+00  4.110300006897E-01
   31     8 O     1.649429995011E+00 -3.213189998124E+00  2.281230001235E+00
   32     1 H     2.640620003016E+00 -3.294390005122E+00  2.386109993776E+00
   33     1 H     1.302459993488E+00 -2.523319995757E+00  2.916659999466E+00
   34     8 O    -1.653920006595E+00  3.059290003096E+00 -2.880219993819E+00
   35     1 H    -2.178230001049E+00  3.253720002215E+00 -2.051139996065E+00
   36     1 H    -2.274590005777E+00  2.757650004297E+00 -3.603989996472E+00
   37     8 O    -3.175169995517E+00  3.246709997494E+00 -5.276400055248E-01
   38     1 H    -3.954169993556E+00  2.674550007179E+00 -7.842800008731E-01
   39     1 H    -3.102320002559E+00  3.282949996571E+00  4.690699929555E-01
   40     8 O    -2.653070007152E+00  3.097079995255E+00  2.284070001992E+00
   41     1 H    -2.191729996300E+00  2.214199994148E+00  2.196059996844E+00
   42     1 H    -2.128189996865E+00  3.687750006596E+00  2.896999998499E+00
[...]

 ELECTRIC FIELD APPLIED ALONG CARTESIAN DIRECTION Y

 *******************************************************************************
 NEW GRID IN RECIPROCAL SPACE
 *******************************************************************************
 POINTS IN THE IBZ                 112 SHRINKING FACTORS               6  6  6
 *******************************************************************************
 *** K POINTS COORDINATES (OBLIQUE COORDINATES IN UNITS OF SHRINK FAC. )
   1-R(  0  0  0)   2-C(  1  0  0)   3-C(  2  0  0)   4-R(  3  0  0)
   5-C(  0  1  0)   6-C(  1  1  0)   7-C(  2  1  0)   8-C(  3  1  0)
   9-C(  4  1  0)  10-C(  5  1  0)  11-C(  0  2  0)  12-C(  1  2  0)
  13-C(  2  2  0)  14-C(  3  2  0)  15-C(  4  2  0)  16-C(  5  2  0)
  17-R(  0  3  0)  18-C(  1  3  0)  19-C(  2  3  0)  20-R(  3  3  0)
  21-C(  0  0  1)  22-C(  1  0  1)  23-C(  2  0  1)  24-C(  3  0  1)
  25-C(  4  0  1)  26-C(  5  0  1)  27-C(  0  1  1)  28-C(  1  1  1)
  29-C(  2  1  1)  30-C(  3  1  1)  31-C(  4  1  1)  32-C(  5  1  1)
  33-C(  0  2  1)  34-C(  1  2  1)  35-C(  2  2  1)  36-C(  3  2  1)
  37-C(  4  2  1)  38-C(  5  2  1)  39-C(  0  3  1)  40-C(  1  3  1)
  41-C(  2  3  1)  42-C(  3  3  1)  43-C(  4  3  1)  44-C(  5  3  1)
  45-C(  0  4  1)  46-C(  1  4  1)  47-C(  2  4  1)  48-C(  3  4  1)
  49-C(  4  4  1)  50-C(  5  4  1)  51-C(  0  5  1)  52-C(  1  5  1)
  53-C(  2  5  1)  54-C(  3  5  1)  55-C(  4  5  1)  56-C(  5  5  1)
  57-C(  0  0  2)  58-C(  1  0  2)  59-C(  2  0  2)  60-C(  3  0  2)
  61-C(  4  0  2)  62-C(  5  0  2)  63-C(  0  1  2)  64-C(  1  1  2)
  65-C(  2  1  2)  66-C(  3  1  2)  67-C(  4  1  2)  68-C(  5  1  2)
  69-C(  0  2  2)  70-C(  1  2  2)  71-C(  2  2  2)  72-C(  3  2  2)
  73-C(  4  2  2)  74-C(  5  2  2)  75-C(  0  3  2)  76-C(  1  3  2)
  77-C(  2  3  2)  78-C(  3  3  2)  79-C(  4  3  2)  80-C(  5  3  2)
  81-C(  0  4  2)  82-C(  1  4  2)  83-C(  2  4  2)  84-C(  3  4  2)
  85-C(  4  4  2)  86-C(  5  4  2)  87-C(  0  5  2)  88-C(  1  5  2)
  89-C(  2  5  2)  90-C(  3  5  2)  91-C(  4  5  2)  92-C(  5  5  2)
  93-R(  0  0  3)  94-C(  1  0  3)  95-C(  2  0  3)  96-R(  3  0  3)
  97-C(  0  1  3)  98-C(  1  1  3)  99-C(  2  1  3) 100-C(  3  1  3)
 101-C(  4  1  3) 102-C(  5  1  3) 103-C(  0  2  3) 104-C(  1  2  3)
 105-C(  2  2  3) 106-C(  3  2  3) 107-C(  4  2  3) 108-C(  5  2  3)
 109-R(  0  3  3) 110-C(  1  3  3) 111-C(  2  3  3) 112-R(  3  3  3)

 GCALCO - MAX INDICES DIRECT LATTICE VECTOR    14    14    14
 NO.OF VECTORS CREATED 6999 STARS  120 RMAX   324.46489 BOHR
 TTTTTTTTTTTTTTTTTTTTTTTTTTTTTT gordsh1     TELAPSE    25876.61 TCPU    25583.02

 MATRIX SIZE: P(G)31031162, F(G) 5472393, P(G) IRR15524381, F(G) IRR 5474893
 MAX G-VECTOR INDEX FOR 1- AND 2-ELECTRON INTEGRALS  81

 TTTTTTTTTTTTTTTTTTTTTTTTTTTTTT INPUT       TELAPSE    26702.69 TCPU    26407.09
 TTTTTTTTTTTTTTTTTTTTTTTTTTTTTT SYMM        TELAPSE    26702.69 TCPU    26407.09

 ***** NEW REFERENCE GEOMETRY *****
 TTTTTTTTTTTTTTTTTTTTTTTTTTTTTT INT_SCREEN  TELAPSE    26703.12 TCPU    26407.51

 DFT PARAMETERS

     ATOM       ELECTRONS   NET CHARGE   R(ANGSTROM)
   1   8  O       8.0000      0.0000     0.74000000
   2   1  H       1.0000      0.0000     1.11000000

 SIZE OF GRID=    7133475
 TTTTTTTTTTTTTTTTTTTTTTTTTTTTTT MAKE_GRID2  TELAPSE    26707.08 TCPU    26411.46
 BECKE WEIGHT FUNCTION
 RADSAFE =     2.00
 TOLERANCES - DENSITY:10**- 6; POTENTIAL:10**- 9; GRID WGT:10**-14

 RADIAL INTEGRATION  - INTERVALS (POINTS,UPPER LIMIT):            1( 75,  4.0*R)

 ANGULAR INTEGRATION - INTERVALS (ACCURACY LEVEL [N. POINTS] UPPER LIMIT):
  1(  4[  86]   0.2)  2(  8[ 194]   0.5)  3( 12[ 350]   0.9)  4( 16[ 974]   3.5)
  5( 12[ 350]9999.0)
 TTTTTTTTTTTTTTTTTTTTTTTTTTTTTT INT_CALC    TELAPSE    26707.52 TCPU    26411.90
 CYCLE   0   ALPHA  777.102920  EPSILON    1.478645  DELTA    7.7710E+02
 WARNING **** GENBUD **** COUL. BIPO BUFFER TOO SMALL - TO AVOID I/O SET BIPOSIZE =     6150375
 TTTTTTTTTTTTTTTTTTTTTTTTTTTTTT MOQGAD      TELAPSE    27577.44 TCPU    27270.90
 TTTTTTTTTTTTTTTTTTTTTTTTTTTTTT CP_MONMON   TELAPSE    27582.95 TCPU    27276.39
 DIIS TEST: 0.18291E+02 AT CPHF  CYCLE   1 - MIX    0 %
 CYCLE   1   ALPHA  923.983133  EPSILON    1.569114  DELTA    1.4688E+02
 WARNING **** GENBUD **** COUL. BIPO BUFFER TOO SMALL - TO AVOID I/O SET BIPOSIZE =     6150375
 TTTTTTTTTTTTTTTTTTTTTTTTTTTTTT MOQGAD      TELAPSE    28529.82 TCPU    28200.55
 TTTTTTTTTTTTTTTTTTTTTTTTTTTTTT CP_MONMON   TELAPSE    28535.35 TCPU    28206.06
 DIIS TEST: 0.55907E+01 AT CPHF  CYCLE   2 - DIIS ACTIVE - HISTORY:     2 CYCLES
 CYCLE   2   ALPHA  978.872531  EPSILON    1.602923  DELTA    5.4889E+01
 WARNING **** GENBUD **** COUL. BIPO BUFFER TOO SMALL - TO AVOID I/O SET BIPOSIZE =     6150375
 TTTTTTTTTTTTTTTTTTTTTTTTTTTTTT MOQGAD      TELAPSE    29483.29 TCPU    29141.10
 TTTTTTTTTTTTTTTTTTTTTTTTTTTTTT CP_MONMON   TELAPSE    29488.81 TCPU    29146.61
 DIIS TEST: 0.18787E+01 AT CPHF  CYCLE   3 - DIIS ACTIVE - HISTORY:     3 CYCLES
 CYCLE   3   ALPHA 1017.672947  EPSILON    1.626821  DELTA    3.8800E+01
 WARNING **** GENBUD **** COUL. BIPO BUFFER TOO SMALL - TO AVOID I/O SET BIPOSIZE =     6150375
 TTTTTTTTTTTTTTTTTTTTTTTTTTTTTT MOQGAD      TELAPSE    30471.90 TCPU    30117.65
 TTTTTTTTTTTTTTTTTTTTTTTTTTTTTT CP_MONMON   TELAPSE    30477.45 TCPU    30123.18
 DIIS TEST: 0.31020E-01 AT CPHF  CYCLE   4 - DIIS ACTIVE - HISTORY:     4 CYCLES
 CYCLE   4   ALPHA 1022.875356  EPSILON    1.630025  DELTA    5.2024E+00
 WARNING **** GENBUD **** COUL. BIPO BUFFER TOO SMALL - TO AVOID I/O SET BIPOSIZE =     6150375
 TTTTTTTTTTTTTTTTTTTTTTTTTTTTTT MOQGAD      TELAPSE    31459.72 TCPU    31093.34
 TTTTTTTTTTTTTTTTTTTTTTTTTTTTTT CP_MONMON   TELAPSE    31465.25 TCPU    31098.86
 DIIS TEST: 0.77890E-02 AT CPHF  CYCLE   5 - DIIS ACTIVE - HISTORY:     5 CYCLES
 CYCLE   5   ALPHA 1023.359444  EPSILON    1.630324  DELTA    4.8409E-01
 WARNING **** GENBUD **** COUL. BIPO BUFFER TOO SMALL - TO AVOID I/O SET BIPOSIZE =     6150375
 TTTTTTTTTTTTTTTTTTTTTTTTTTTTTT MOQGAD      TELAPSE    32403.37 TCPU    32020.65
 TTTTTTTTTTTTTTTTTTTTTTTTTTTTTT CP_MONMON   TELAPSE    32408.90 TCPU    32026.16
 DIIS TEST: 0.75865E-03 AT CPHF  CYCLE   6 - DIIS ACTIVE - HISTORY:     6 CYCLES
 CYCLE   6   ALPHA 1023.543302  EPSILON    1.630437  DELTA    1.8386E-01
 WARNING **** GENBUD **** COUL. BIPO BUFFER TOO SMALL - TO AVOID I/O SET BIPOSIZE =     6150375
 TTTTTTTTTTTTTTTTTTTTTTTTTTTTTT MOQGAD      TELAPSE    33390.19 TCPU    32995.62
 TTTTTTTTTTTTTTTTTTTTTTTTTTTTTT CP_MONMON   TELAPSE    33395.64 TCPU    33001.05
 DIIS TEST: 0.20591E-04 AT CPHF  CYCLE   7 - DIIS ACTIVE - HISTORY:     7 CYCLES
 CYCLE   7   ALPHA 1023.563931  EPSILON    1.630450  DELTA    2.0629E-02
 WARNING **** GENBUD **** COUL. BIPO BUFFER TOO SMALL - TO AVOID I/O SET BIPOSIZE =     6150375
 TTTTTTTTTTTTTTTTTTTTTTTTTTTTTT MOQGAD      TELAPSE    34333.86 TCPU    33923.32
 TTTTTTTTTTTTTTTTTTTTTTTTTTTTTT CP_MONMON   TELAPSE    34339.36 TCPU    33928.80
 DIIS TEST: 0.54402E-05 AT CPHF  CYCLE   8 - DIIS ACTIVE - HISTORY:     8 CYCLES
 CYCLE   8   ALPHA 1023.566293  EPSILON    1.630451  DELTA    2.3620E-03
 WARNING **** GENBUD **** COUL. BIPO BUFFER TOO SMALL - TO AVOID I/O SET BIPOSIZE =     6150375
 TTTTTTTTTTTTTTTTTTTTTTTTTTTTTT MOQGAD      TELAPSE    35320.49 TCPU    34897.66
 TTTTTTTTTTTTTTTTTTTTTTTTTTTTTT CP_MONMON   TELAPSE    35326.08 TCPU    34903.24
 DIIS TEST: 0.50353E-06 AT CPHF  CYCLE   9 - DIIS ACTIVE - HISTORY:     9 CYCLES
 CYCLE   9   ALPHA 1023.565926  EPSILON    1.630451  DELTA   -3.6702E-04
 TTTTTTTTTTTTTTTTTTTTTTTTTTTTTT CP_SC       TELAPSE    35931.09 TCPU    35502.60

 *******************************************************************************

 ELECTRIC FIELD APPLIED ALONG CARTESIAN DIRECTION Z

 *******************************************************************************
 NEW GRID IN RECIPROCAL SPACE
 *******************************************************************************
 POINTS IN THE IBZ                 112 SHRINKING FACTORS               6  6  6
 *******************************************************************************
 *** K POINTS COORDINATES (OBLIQUE COORDINATES IN UNITS OF SHRINK FAC. )
   1-R(  0  0  0)   2-C(  1  0  0)   3-C(  2  0  0)   4-R(  3  0  0)
   5-C(  0  1  0)   6-C(  1  1  0)   7-C(  2  1  0)   8-C(  3  1  0)
   9-C(  4  1  0)  10-C(  5  1  0)  11-C(  0  2  0)  12-C(  1  2  0)
  13-C(  2  2  0)  14-C(  3  2  0)  15-C(  4  2  0)  16-C(  5  2  0)
  17-R(  0  3  0)  18-C(  1  3  0)  19-C(  2  3  0)  20-R(  3  3  0)
  21-C(  0  0  1)  22-C(  1  0  1)  23-C(  2  0  1)  24-C(  3  0  1)
  25-C(  4  0  1)  26-C(  5  0  1)  27-C(  0  1  1)  28-C(  1  1  1)
  29-C(  2  1  1)  30-C(  3  1  1)  31-C(  4  1  1)  32-C(  5  1  1)
  33-C(  0  2  1)  34-C(  1  2  1)  35-C(  2  2  1)  36-C(  3  2  1)
  37-C(  4  2  1)  38-C(  5  2  1)  39-C(  0  3  1)  40-C(  1  3  1)
  41-C(  2  3  1)  42-C(  3  3  1)  43-C(  4  3  1)  44-C(  5  3  1)
  45-C(  0  4  1)  46-C(  1  4  1)  47-C(  2  4  1)  48-C(  3  4  1)
  49-C(  4  4  1)  50-C(  5  4  1)  51-C(  0  5  1)  52-C(  1  5  1)
  53-C(  2  5  1)  54-C(  3  5  1)  55-C(  4  5  1)  56-C(  5  5  1)
  57-C(  0  0  2)  58-C(  1  0  2)  59-C(  2  0  2)  60-C(  3  0  2)
  61-C(  4  0  2)  62-C(  5  0  2)  63-C(  0  1  2)  64-C(  1  1  2)
  65-C(  2  1  2)  66-C(  3  1  2)  67-C(  4  1  2)  68-C(  5  1  2)
  69-C(  0  2  2)  70-C(  1  2  2)  71-C(  2  2  2)  72-C(  3  2  2)
  73-C(  4  2  2)  74-C(  5  2  2)  75-C(  0  3  2)  76-C(  1  3  2)
  77-C(  2  3  2)  78-C(  3  3  2)  79-C(  4  3  2)  80-C(  5  3  2)
  81-C(  0  4  2)  82-C(  1  4  2)  83-C(  2  4  2)  84-C(  3  4  2)
  85-C(  4  4  2)  86-C(  5  4  2)  87-C(  0  5  2)  88-C(  1  5  2)
  89-C(  2  5  2)  90-C(  3  5  2)  91-C(  4  5  2)  92-C(  5  5  2)
  93-R(  0  0  3)  94-C(  1  0  3)  95-C(  2  0  3)  96-R(  3  0  3)
  97-C(  0  1  3)  98-C(  1  1  3)  99-C(  2  1  3) 100-C(  3  1  3)
 101-C(  4  1  3) 102-C(  5  1  3) 103-C(  0  2  3) 104-C(  1  2  3)
 105-C(  2  2  3) 106-C(  3  2  3) 107-C(  4  2  3) 108-C(  5  2  3)
 109-R(  0  3  3) 110-C(  1  3  3) 111-C(  2  3  3) 112-R(  3  3  3)

 GCALCO - MAX INDICES DIRECT LATTICE VECTOR    14    14    14
 NO.OF VECTORS CREATED 6999 STARS  120 RMAX   324.46489 BOHR
 TTTTTTTTTTTTTTTTTTTTTTTTTTTTTT gordsh1     TELAPSE    36008.54 TCPU    35579.80

 MATRIX SIZE: P(G)31031162, F(G) 5472393, P(G) IRR15524381, F(G) IRR 5474893
 MAX G-VECTOR INDEX FOR 1- AND 2-ELECTRON INTEGRALS  81

 TTTTTTTTTTTTTTTTTTTTTTTTTTTTTT INPUT       TELAPSE    36845.74 TCPU    36414.99
 TTTTTTTTTTTTTTTTTTTTTTTTTTTTTT SYMM        TELAPSE    36845.74 TCPU    36414.99

 ***** NEW REFERENCE GEOMETRY *****
 TTTTTTTTTTTTTTTTTTTTTTTTTTTTTT INT_SCREEN  TELAPSE    36846.16 TCPU    36415.41

 DFT PARAMETERS

     ATOM       ELECTRONS   NET CHARGE   R(ANGSTROM)
   1   8  O       8.0000      0.0000     0.74000000
   2   1  H       1.0000      0.0000     1.11000000

 SIZE OF GRID=    7133475
 TTTTTTTTTTTTTTTTTTTTTTTTTTTTTT MAKE_GRID2  TELAPSE    36850.20 TCPU    36419.44
 BECKE WEIGHT FUNCTION
 RADSAFE =     2.00
 TOLERANCES - DENSITY:10**- 6; POTENTIAL:10**- 9; GRID WGT:10**-14

 RADIAL INTEGRATION  - INTERVALS (POINTS,UPPER LIMIT):            1( 75,  4.0*R)

 ANGULAR INTEGRATION - INTERVALS (ACCURACY LEVEL [N. POINTS] UPPER LIMIT):
  1(  4[  86]   0.2)  2(  8[ 194]   0.5)  3( 12[ 350]   0.9)  4( 16[ 974]   3.5)
  5( 12[ 350]9999.0)
 TTTTTTTTTTTTTTTTTTTTTTTTTTTTTT INT_CALC    TELAPSE    36850.64 TCPU    36419.88
 CYCLE   0   ALPHA  781.407900  EPSILON    1.481297  DELTA    7.8141E+02
 WARNING **** GENBUD **** COUL. BIPO BUFFER TOO SMALL - TO AVOID I/O SET BIPOSIZE =     6150375
 TTTTTTTTTTTTTTTTTTTTTTTTTTTTTT MOQGAD      TELAPSE    37716.98 TCPU    37275.02
 TTTTTTTTTTTTTTTTTTTTTTTTTTTTTT CP_MONMON   TELAPSE    37722.62 TCPU    37280.54
 DIIS TEST: 0.18833E+02 AT CPHF  CYCLE   1 - MIX    0 %
 CYCLE   1   ALPHA  931.092434  EPSILON    1.573493  DELTA    1.4968E+02
 WARNING **** GENBUD **** COUL. BIPO BUFFER TOO SMALL - TO AVOID I/O SET BIPOSIZE =     6150375
 TTTTTTTTTTTTTTTTTTTTTTTTTTTTTT MOQGAD      TELAPSE    38658.38 TCPU    38202.36
 TTTTTTTTTTTTTTTTTTTTTTTTTTTTTT CP_MONMON   TELAPSE    38663.88 TCPU    38207.85
 DIIS TEST: 0.57896E+01 AT CPHF  CYCLE   2 - DIIS ACTIVE - HISTORY:     2 CYCLES
 CYCLE   2   ALPHA  986.951401  EPSILON    1.607899  DELTA    5.5859E+01
 WARNING **** GENBUD **** COUL. BIPO BUFFER TOO SMALL - TO AVOID I/O SET BIPOSIZE =     6150375
 TTTTTTTTTTTTTTTTTTTTTTTTTTTTTT MOQGAD      TELAPSE    39597.55 TCPU    39127.29
 TTTTTTTTTTTTTTTTTTTTTTTTTTTTTT CP_MONMON   TELAPSE    39603.04 TCPU    39132.77
 DIIS TEST: 0.19209E+01 AT CPHF  CYCLE   3 - DIIS ACTIVE - HISTORY:     3 CYCLES
 CYCLE   3   ALPHA 1026.812074  EPSILON    1.632450  DELTA    3.9861E+01
 WARNING **** GENBUD **** COUL. BIPO BUFFER TOO SMALL - TO AVOID I/O SET BIPOSIZE =     6150375
 TTTTTTTTTTTTTTTTTTTTTTTTTTTTTT MOQGAD      TELAPSE    40586.52 TCPU    40104.04
 TTTTTTTTTTTTTTTTTTTTTTTTTTTTTT CP_MONMON   TELAPSE    40592.18 TCPU    40109.69
 DIIS TEST: 0.32664E-01 AT CPHF  CYCLE   4 - DIIS ACTIVE - HISTORY:     4 CYCLES
 CYCLE   4   ALPHA 1031.976440  EPSILON    1.635631  DELTA    5.1644E+00
 WARNING **** GENBUD **** COUL. BIPO BUFFER TOO SMALL - TO AVOID I/O SET BIPOSIZE =     6150375
 TTTTTTTTTTTTTTTTTTTTTTTTTTTTTT MOQGAD      TELAPSE    41575.96 TCPU    41081.95
 TTTTTTTTTTTTTTTTTTTTTTTTTTTTTT CP_MONMON   TELAPSE    41581.42 TCPU    41087.40
 DIIS TEST: 0.89251E-02 AT CPHF  CYCLE   5 - DIIS ACTIVE - HISTORY:     5 CYCLES
 CYCLE   5   ALPHA 1032.472402  EPSILON    1.635937  DELTA    4.9596E-01
 WARNING **** GENBUD **** COUL. BIPO BUFFER TOO SMALL - TO AVOID I/O SET BIPOSIZE =     6150375
 TTTTTTTTTTTTTTTTTTTTTTTTTTTTTT MOQGAD      TELAPSE    42568.20 TCPU    42061.68
 TTTTTTTTTTTTTTTTTTTTTTTTTTTTTT CP_MONMON   TELAPSE    42573.63 TCPU    42067.10
 DIIS TEST: 0.72129E-03 AT CPHF  CYCLE   6 - DIIS ACTIVE - HISTORY:     6 CYCLES
 CYCLE   6   ALPHA 1032.660647  EPSILON    1.636053  DELTA    1.8825E-01
 WARNING **** GENBUD **** COUL. BIPO BUFFER TOO SMALL - TO AVOID I/O SET BIPOSIZE =     6150375
 TTTTTTTTTTTTTTTTTTTTTTTTTTTTTT MOQGAD      TELAPSE    43557.92 TCPU    43042.17
 TTTTTTTTTTTTTTTTTTTTTTTTTTTTTT CP_MONMON   TELAPSE    43563.38 TCPU    43047.61
 DIIS TEST: 0.23695E-04 AT CPHF  CYCLE   7 - DIIS ACTIVE - HISTORY:     7 CYCLES
 CYCLE   7   ALPHA 1032.682057  EPSILON    1.636066  DELTA    2.1410E-02
 WARNING **** GENBUD **** COUL. BIPO BUFFER TOO SMALL - TO AVOID I/O SET BIPOSIZE =     6150375
 TTTTTTTTTTTTTTTTTTTTTTTTTTTTTT MOQGAD      TELAPSE    44547.66 TCPU    44019.90
 TTTTTTTTTTTTTTTTTTTTTTTTTTTTTT CP_MONMON   TELAPSE    44553.08 TCPU    44025.31
 DIIS TEST: 0.60665E-05 AT CPHF  CYCLE   8 - DIIS ACTIVE - HISTORY:     8 CYCLES
 CYCLE   8   ALPHA 1032.684963  EPSILON    1.636068  DELTA    2.9058E-03
 WARNING **** GENBUD **** COUL. BIPO BUFFER TOO SMALL - TO AVOID I/O SET BIPOSIZE =     6150375
 TTTTTTTTTTTTTTTTTTTTTTTTTTTTTT MOQGAD      TELAPSE    45500.81 TCPU    44959.79
 TTTTTTTTTTTTTTTTTTTTTTTTTTTTTT CP_MONMON   TELAPSE    45506.35 TCPU    44965.32
 DIIS TEST: 0.46512E-06 AT CPHF  CYCLE   9 - DIIS ACTIVE - HISTORY:     9 CYCLES
 CYCLE   9   ALPHA 1032.684563  EPSILON    1.636067  DELTA   -4.0011E-04
 TTTTTTTTTTTTTTTTTTTTTTTTTTTTTT CP_SC       TELAPSE    45746.00 TCPU    45199.38

 *******************************************************************************

 POLARIZABILITY (ALPHA), DIELECTRIC (EPSILON) AND FIRST-ORDER ELECTRIC
 SUSCEPTIBILITY (CHI(1)) TENSORS (INDEPENDENT COMPONENTS)

  FR.(eV) COMP.   ALPHA(Re,Im)           EPSILON(Re,Im)                CHI(1)
  0.000   XX    1030.5889       0.0000       1.6348       0.0000       0.6348
  0.000   XY     -13.5317       0.0000      -0.0083       0.0000      -0.0083
  0.000   XZ      18.1277       0.0000       0.0112       0.0000       0.0112
  0.000   YY    1023.5659       0.0000       1.6305       0.0000       0.6305
  0.000   YZ       1.7373       0.0000       0.0011       0.0000       0.0011
  0.000   ZZ    1032.6846       0.0000       1.6361       0.0000       0.6361

 DIELECTRIC TENSOR

 TENSOR IN PRINCIPAL AXES SYSTEM
 AA  1.648155E+00 BB  1.619596E+00 CC  1.633543E+00

 REFRACTIVE INDICES 
 AA  1.272634E+00 BB  1.278101E+00 CC  1.283805E+00

 OPTICALLY ANISOTROPIC - BIAXIAL CRYSTAL

 ACUTE ANGLE BETWEEN OPTIC AXES (DEGREES)
 2V=  89.16687
 BIAXIAL POSITIVE: 2V ANGLE BISECTED BY THE LARGEST REFRACTIVE INDEX (CC)

 ANGLES BETWEEN OPTICAL AND BASIS LATTICE VECTORS (DEGREES)
             A1           A2           A3
 O.A. 1   135.8753      94.6942      46.2593
 O.A. 2   107.4296     150.3942     113.1330

 EPSILON=N**2=1+CHI(1)=1+ALPHA*4*PI/V,   4*PI/V=   0.00062 BOHR**(-3)
 ALPHA IN BOHR**3; EPSILON AND CHI(1) ARE DIMENSIONLESS.
 *******************************************************************************


 SIZE OF GRID=    7133475
 TTTTTTTTTTTTTTTTTTTTTTTTTTTTTT MAKE_GRID2  TELAPSE    47531.18 TCPU    46977.80
 BECKE WEIGHT FUNCTION
 RADSAFE =     2.00
 TOLERANCES - DENSITY:10**- 6; POTENTIAL:10**- 9; GRID WGT:10**-14

 RADIAL INTEGRATION  - INTERVALS (POINTS,UPPER LIMIT):            1( 75,  4.0*R)

 ANGULAR INTEGRATION - INTERVALS (ACCURACY LEVEL [N. POINTS] UPPER LIMIT):
  1(  4[  86]   0.2)  2(  8[ 194]   0.5)  3( 12[ 350]   0.9)  4( 16[ 974]   3.5)
  5( 12[ 350]9999.0)
 *******************************************************************************

 FIRST HYPERPOLARIZABILITY (BETA) AND SECOND ELECTRIC SUSCEPTIBILITY (CHI(2))
 TENSORS (INDEPENDENT COMPONENTS)

  COMPONENT      BETA                        CHI(2)       d(MKS)       d(cgs)
 *******************************************************************************

     XXX   -1.0153E+02  ( -1.0153E+02)  -3.1267E-02  -3.0402E-02  -7.2529E-04
     XXY    5.8271E+01  (  5.8271E+01)   1.7945E-02   1.7449E-02   4.1628E-04
     XXZ   -1.8414E+00  ( -1.8414E+00)  -5.6709E-04  -5.5141E-04  -1.3155E-05
     XYY   -6.4857E+00  ( -6.4857E+00)  -1.9974E-03  -1.9422E-03  -4.6334E-05
     XYZ    8.4274E+00  (  8.4274E+00)   2.5954E-03   2.5236E-03   6.0205E-05
     XZZ   -5.9696E+01  ( -5.9696E+01)  -1.8384E-02  -1.7876E-02  -4.2646E-04
     YYY   -3.7481E+01  ( -3.7481E+01)  -1.1543E-02  -1.1224E-02  -2.6776E-04
     YYZ   -7.5744E+01  ( -7.5744E+01)  -2.3327E-02  -2.2682E-02  -5.4111E-04
     YZZ    1.0571E+01  (  1.0571E+01)   3.2556E-03   3.1656E-03   7.5520E-05
     ZZZ   -9.6624E+01  ( -9.6624E+01)  -2.9757E-02  -2.8934E-02  -6.9027E-04
 *******************************************************************************
 CHI(2) = BETA*2PI/V

 BETA AND CHI(2) IN A.U.:    [BETA] = M**(-1/2) L**(7/2) T
                             [CHI(2)] = 1/F
                             (L=LENGTH, M=MASS, T=TIME, F=FIELD INTENSITY)

 ELECTRIC SUSCEPTIBILITY IN THE SECOND HARMONIC GENERATION (SHG) CONVENTION IS:
                   d(A.U.)= 1/2 CHI(2)
                   d(MKS) = d(A.U.)/0.514220632 pm/V
                   d(CGS) = d(A.U.)/(4PI*1.7152535)  10**(-7) esu

 FIELD INTENSITY: 1 A.U. = 0.514220632*10**(11) V/m = 1.7152535*10**7 esu
 BEWARE:                CHI(2)=P/(E0*F**2)   (MKS)
                        CHI(2)=P/F**2        (CGS)
 WHERE P IS THE POLARIZATION VECTOR AND F IS THE APPLIED ELECTRIC FIELD.
 CONSISTENCY IS  PRESERVED BY MULTIPLYING THE CGS VALUE TIMES THE PERMITTIVITY
 OF THE VACUUM, E0 (CONVERSION FACTORS FROM www.physics.nist.gov/constants).
 IN PARENTHESIS: BETA BEFORE SYMMETRIZATION.

 *******************************************************************************


 GCALCO - MAX INDICES DIRECT LATTICE VECTOR    14    14    14
 NO.OF VECTORS CREATED 6999 STARS  120 RMAX   324.46489 BOHR

 CAPPA:IS1  6;IS2  6;IS3  6; K PTS MONK NET 112; SYMMOPS:K SPACE   2;G SPACE   1

 TTTTTTTTTTTTTTTTTTTTTTTTTTTTTT END         TELAPSE    47531.97 TCPU    46978.16
 EEEEEEEEEE TERMINATION  DATE 13 09 2022 TIME 19:04:41.0
NODE    0 CPU TIME =     46978.161
    TOTAL CPU TIME =  22521103.332
pe files deleted
TMPDIR copied back to SUBMIT_DIR
TMPDIR deleted
