
The following have been reloaded with a version change:
  1) releases/2021b => releases/2017b

TMPDIR created
/home/unamur/ucpts/fmairess/CRYSTAL17/bin/Linux-ifort17_XE_emt64/v1.mod/crystal
 PROCESS           19  OF           24  WORKING
 PROCESS           18  OF           24  WORKING
 PROCESS           16  OF           24  WORKING
 PROCESS           17  OF           24  WORKING
 PROCESS           21  OF           24  WORKING
 PROCESS           22  OF           24  WORKING
 PROCESS           20  OF           24  WORKING
 PROCESS           23  OF           24  WORKING
 PROCESS           15  OF           24  WORKING
 PROCESS            5  OF           24  WORKING
 PROCESS            4  OF           24  WORKING
 PROCESS            3  OF           24  WORKING
 PROCESS            2  OF           24  WORKING
 PROCESS            0  OF           24  WORKING
 PROCESS            7  OF           24  WORKING
 PROCESS           10  OF           24  WORKING
 PROCESS           11  OF           24  WORKING
 PROCESS            6  OF           24  WORKING

         
 *******************************************************************************
 *                                                                             *
 *                               CRYSTAL17                                     *
 *                      public : 1.0.2 - March 1st, 2018                       *
 *                       HTTP://WWW.CRYSTAL.UNITO.IT                           *
 *                                                                             *
 *                              MAIN AUTHORS                                   *
 *                                                                             *
 *  R. DOVESI(1,11), V.R. SAUNDERS(2), C. ROETTI(1,11), R. ORLANDO(1,11),      *
 *  C.M. ZICOVICH-WILSON(1,3), F. PASCALE(4), B. CIVALLERI(1,11),              *
 *  K. DOLL(5), N.M. HARRISON(2,6), I.J. BUSH(7), Ph. D'ARCO(8),               *
 *  M. LLUNELL(9), M. CAUSA'(10), Y. NOEL(8), L. MASCHIO(1,11), A. ERBA(1,11)  *
 *  M. RE'RAT(14), S. CASASSA(1,11)                                            *
 *                                                                             *
 *        CONTRIBUTIONS TO THE CODE HAVE ALSO BEEN GIVEN BY                    *
 *                                                                             *
 *  M. FERRABONE(1,11), M. DE LA PIERRE(1,11), M. FERRERO(1,11),               *
 *  J. BAIMA(1,11), E. ALBANESE(1,11), M.F. PEINTINGER(12), R. BAST(13),       *
 *  B. KIRTMAN(15), V. LACIVITA(1,11), R. DEMICHELIS(1,16)                     *
 *  G. BRANDEBURG(17), S. SALUSTRO(1,11), G. SANSONE(1,11)                     *
 *  M.T. RUGGIERO(18)                                                          *
 *                                                                             *
 * (1) THEORETICAL CHEMISTRY GROUP - UNIVERSITA' DI TORINO - TORINO (ITALY)    *
 * (2) COMPUTATIONAL SCIENCE & ENGINEERING DEPARTMENT - STFC DARESBURY (UK)    *
 * (3) UNIVERSIDAD AUTONOMA DEL ESTADO DE MORELOS - CUERNAVACA (MEXICO)        *
 * (4) UNIVERSITE' DE LORRAINE - NANCY (FRANCE)                                *
 * (5) UNIVERSITAET STUTTGART- STUTTGART (GERMANY)                             *
 * (6) IMPERIAL COLLEGE - LONDON (UK)                                          *
 * (7) OXFORD E-RESEARCH CENTRE - OXFORD (UK)                                  *
 * (8) UPMC - SORBONNE UNIVERSITES - PARIS (FRANCE)                            *
 * (9) UNIVERSIDAD DE BARCELONA - BARCELONA (SPAIN)                            *
 *(10) UNIVERSITA' DI NAPOLI "FEDERICO II" - NAPOLI (ITALY)                    *
 *(11) NIS - NANOSTRUCTURED INTERFACES AND SURFACES - TORINO (ITALY)           *
 *(12) MPI FUER CHEMISCHE ENERGIEKONVERSION - MUELHEIM AN DER RUHR (GERMANY)   *
 *(13) UNIVERSITY OF TROMSO - TROMSO (NORWAY)                                  *
 *(14) UNIVERSITE' DE PAU ET DES PAYS DE L'ADOUR - PAU (FRANCE)                *
 *(15) UNIVERSITY OF CALIFORNIA SANTA BARBARA - SANTA BARBARA (USA)            *
 *(16) CURTIN UNIVERSITY - PERTH (AUSTRALIA)                                   *
 *(17) UNIVERSITY COLLEGE LONDON - LONDON (UK)                                 *
 *(18) CAMBRIDGE UNIVERSITY - CAMBRIDGE (UK)                                   *
 *                                                                             *
 *******************************************************************************
 PROCESS            9  OF           24  WORKING
 PROCESS           13  OF           24  WORKING
 EEEEEEEEEE STARTING  DATE 22 04 2023 TIME 10:26:25.7
 water0000                                                                       
 PROCESS           14  OF           24  WORKING
 PROCESS            8  OF           24  WORKING
 PROCESS            1  OF           24  WORKING
 PROCESS           12  OF           24  WORKING

 SLAB CALCULATION
 SYSTEM AND LATTICE                   :  OBLIQUE     
 TWO-SIDED PLANE GROUP N.  1          :  P 1             
 CORRESPONDING SPACE GROUP N.   1

 LATTICE PARAMETERS  (ANGSTROMS AND DEGREES) - CONVENTIONAL CELL
           A              B            GAMMA
       17.00000       17.00000       90.00000


 NUMBER OF IRREDUCIBLE ATOMS IN THE CONVENTIONAL CELL:   69

 INPUT COORDINATES

 ATOM AT. N.              COORDINATES
   1   8     3.200000000000E-01  7.635294117647E-01  1.488700000000E+02
   2   1     2.829411764706E-01  7.979411764706E-01  1.493910000000E+02
   3   1     3.617647058824E-01  7.964705882353E-01  1.484530000000E+02
   4   8     1.352941176471E-02  3.882352941176E-02  1.486600000000E+02
   5   1     6.882352941176E-02  4.935294117647E-02  1.483990000000E+02
   6   1     1.764705882353E-03  6.458823529412E-02  1.495380000000E+02
   7   8     4.300000000000E-01  8.687647058824E-01  1.479500000000E+02
   8   1     4.611764705882E-01  9.037647058824E-01  1.485480000000E+02
   9   1     3.988235294118E-01  9.016470588235E-01  1.473070000000E+02
  10   8     6.376470588235E-01  5.335294117647E-01  1.476000000000E+02
  11   1     6.870588235294E-01  5.300588235294E-01  1.470610000000E+02
  12   1     6.464705882353E-01  5.683529411765E-01  1.483910000000E+02
  13   8     4.235294117647E-02  3.076470588235E-01  1.495200000000E+02
  14   1     7.941176470588E-02  3.134705882353E-01  1.502850000000E+02
  15   1    -1.176470588235E-02  3.205294117647E-01  1.498280000000E+02
  16   8     9.341176470588E-01  7.776470588235E-01  1.489800000000E+02
  17   1     8.811764705882E-01  8.024705882353E-01  1.491400000000E+02
  18   1     9.729411764706E-01  8.192352941176E-01  1.487410000000E+02
  19   8     5.611764705882E-01  3.952941176471E-01  1.471900000000E+02
  20   1     5.235294117647E-01  3.710588235294E-01  1.478480000000E+02
  21   1     5.929411764706E-01  4.369411764706E-01  1.476460000000E+02
  22   8     8.017647058824E-01  8.717647058824E-01  1.497800000000E+02
  23   1     7.700000000000E-01  8.929411764706E-01  1.490200000000E+02
  24   1     8.088235294118E-01  9.138823529412E-01  1.504660000000E+02
  25   8     8.635294117647E-01  4.052941176471E-01  1.474300000000E+02
  26   1     8.347058823529E-01  3.575294117647E-01  1.471100000000E+02
  27   1     9.205882352941E-01  3.933529411765E-01  1.474990000000E+02
  28   8     6.770588235294E-01  9.764705882353E-02  1.497100000000E+02
  29   1     6.535294117647E-01  1.005294117647E-01  1.506290000000E+02
  30   1     7.335294117647E-01  1.124117647059E-01  1.497470000000E+02
  31   8     1.911764705882E-01  8.676470588235E-01  1.498400000000E+02
  32   1     2.076470588235E-01  9.112352941176E-01  1.492300000000E+02
  33   1     1.358823529412E-01  8.517058823529E-01  1.496220000000E+02
  34   8     1.623529411765E-01  4.764705882353E-02  1.479200000000E+02
  35   1     1.923529411765E-01  2.235294117647E-03  1.475410000000E+02
  36   1     1.588235294118E-01  9.070588235294E-02  1.472400000000E+02
  37   8     7.235294117647E-01  8.906470588235E-01  1.475000000000E+02
  38   1     7.188235294118E-01  8.386470588235E-01  1.470380000000E+02
  39   1     6.723529411765E-01  9.197058823529E-01  1.474100000000E+02
  40   8     1.023529411765E-01  5.435294117647E-01  1.484400000000E+02
  41   1     6.588235294118E-02  5.858823529412E-01  1.481210000000E+02
  42   1     1.558823529412E-01  5.660588235294E-01  1.485900000000E+02
  43   8     8.258823529412E-01  1.411764705882E-01  1.498190000000E+02
  44   1     8.335294117647E-01  1.218823529412E-01  1.488850000000E+02
  45   1     8.764705882353E-01  1.377058823529E-01  1.503230000000E+02
  46   8     8.147058823529E-01  5.000000000000E-01  1.493700000000E+02
  47   1     8.370588235294E-01  4.612941176471E-01  1.487240000000E+02
  48   1     8.317647058824E-01  5.542941176471E-01  1.491200000000E+02
  49   8     4.782352941176E-01  9.823529411765E-02  1.494700000000E+02
  50   1     4.364705882353E-01  9.476470588235E-02  1.501800000000E+02
  51   1     5.282352941176E-01  7.594117647059E-02  1.498180000000E+02
  52   8     2.335294117647E-01  6.182352941176E-01  1.488800000000E+02
  53   1     2.317647058824E-01  6.767058823529E-01  1.487800000000E+02
  54   1     2.888235294118E-01  6.008235294118E-01  1.490300000000E+02
  55   8     4.876470588235E-01  2.758823529412E-01  1.489900000000E+02
  56   1     4.994117647059E-01  2.195882352941E-01  1.492020000000E+02
  57   1     4.500000000000E-01  2.784117647059E-01  1.482220000000E+02
  58   8     5.705882352941E-01  7.500000000000E-01  1.486200000000E+02
  59   1     5.523529411765E-01  7.314117647059E-01  1.477230000000E+02
  60   1     5.741176470588E-01  8.087058823529E-01  1.486170000000E+02
  61   8     2.952941176471E-01  2.652941176471E-01  1.481800000000E+02
  62   1     2.611764705882E-01  3.131176470588E-01  1.480690000000E+02
  63   1     3.305882352941E-01  2.600000000000E-01  1.473910000000E+02
  64   8     8.247058823529E-01  6.676470588235E-01  1.488000000000E+02
  65   1     8.682352941176E-01  7.063529411765E-01  1.488900000000E+02
  66   1     7.764705882353E-01  6.951764705882E-01  1.484610000000E+02
  67   8     3.864705882353E-01  5.535294117647E-01  1.496300000000E+02
  68   1     4.147058823529E-01  6.008823529412E-01  1.499790000000E+02
  69   1     4.041176470588E-01  5.057647058824E-01  1.501270000000E+02

 *******************************************************************************

 << INFORMATION >>: FROM NOW ON, ALL COORDINATES REFER TO THE PRIMITIVE CELL

 *******************************************************************************

 LATTICE PARAMETERS  (ANGSTROMS AND DEGREES) - PRIMITIVE CELL
       A          B          C        ALPHA      BETA     GAMMA        VOLUME
   17.00000   17.00000  500.00000    90.00000  90.00000  90.00000    289.000000

 COORDINATES OF THE EQUIVALENT ATOMS 
 (X AND Y IN FRACTIONARY UNITS, Z IN ANGSTROMS)

 N. ATOM EQUIV AT. N.          X                  Y                  Z

   1   1   1    8 O     3.20000000000E-01 -2.36470588235E-01  1.48870000000E+02

   2   2   1    1 H     2.82941176471E-01 -2.02058823529E-01  1.49391000000E+02

   3   3   1    1 H     3.61764705882E-01 -2.03529411765E-01  1.48453000000E+02

   4   4   1    8 O     1.35294117647E-02  3.88235294118E-02  1.48660000000E+02

   5   5   1    1 H     6.88235294118E-02  4.93529411765E-02  1.48399000000E+02

   6   6   1    1 H     1.76470588235E-03  6.45882352941E-02  1.49538000000E+02

   7   7   1    8 O     4.30000000000E-01 -1.31235294118E-01  1.47950000000E+02

   8   8   1    1 H     4.61176470588E-01 -9.62352941176E-02  1.48548000000E+02

   9   9   1    1 H     3.98823529412E-01 -9.83529411765E-02  1.47307000000E+02

  10  10   1    8 O    -3.62352941176E-01 -4.66470588235E-01  1.47600000000E+02

  11  11   1    1 H    -3.12941176471E-01 -4.69941176471E-01  1.47061000000E+02

  12  12   1    1 H    -3.53529411765E-01 -4.31647058824E-01  1.48391000000E+02

  13  13   1    8 O     4.23529411765E-02  3.07647058824E-01  1.49520000000E+02

  14  14   1    1 H     7.94117647059E-02  3.13470588235E-01  1.50285000000E+02

  15  15   1    1 H    -1.17647058824E-02  3.20529411765E-01  1.49828000000E+02

  16  16   1    8 O    -6.58823529412E-02 -2.22352941176E-01  1.48980000000E+02

  17  17   1    1 H    -1.18823529412E-01 -1.97529411765E-01  1.49140000000E+02

  18  18   1    1 H    -2.70588235294E-02 -1.80764705882E-01  1.48741000000E+02

  19  19   1    8 O    -4.38823529412E-01  3.95294117647E-01  1.47190000000E+02

  20  20   1    1 H    -4.76470588235E-01  3.71058823529E-01  1.47848000000E+02

  21  21   1    1 H    -4.07058823529E-01  4.36941176471E-01  1.47646000000E+02

  22  22   1    8 O    -1.98235294118E-01 -1.28235294118E-01  1.49780000000E+02

  23  23   1    1 H    -2.30000000000E-01 -1.07058823529E-01  1.49020000000E+02

  24  24   1    1 H    -1.91176470588E-01 -8.61176470588E-02  1.50466000000E+02

  25  25   1    8 O    -1.36470588235E-01  4.05294117647E-01  1.47430000000E+02

  26  26   1    1 H    -1.65294117647E-01  3.57529411765E-01  1.47110000000E+02

  27  27   1    1 H    -7.94117647059E-02  3.93352941176E-01  1.47499000000E+02

  28  28   1    8 O    -3.22941176471E-01  9.76470588235E-02  1.49710000000E+02

  29  29   1    1 H    -3.46470588235E-01  1.00529411765E-01  1.50629000000E+02

  30  30   1    1 H    -2.66470588235E-01  1.12411764706E-01  1.49747000000E+02

  31  31   1    8 O     1.91176470588E-01 -1.32352941176E-01  1.49840000000E+02

  32  32   1    1 H     2.07647058824E-01 -8.87647058824E-02  1.49230000000E+02

  33  33   1    1 H     1.35882352941E-01 -1.48294117647E-01  1.49622000000E+02

  34  34   1    8 O     1.62352941176E-01  4.76470588235E-02  1.47920000000E+02

  35  35   1    1 H     1.92352941176E-01  2.23529411765E-03  1.47541000000E+02

  36  36   1    1 H     1.58823529412E-01  9.07058823529E-02  1.47240000000E+02

  37  37   1    8 O    -2.76470588235E-01 -1.09352941176E-01  1.47500000000E+02

  38  38   1    1 H    -2.81176470588E-01 -1.61352941176E-01  1.47038000000E+02

  39  39   1    1 H    -3.27647058824E-01 -8.02941176471E-02  1.47410000000E+02

  40  40   1    8 O     1.02352941176E-01 -4.56470588235E-01  1.48440000000E+02

  41  41   1    1 H     6.58823529412E-02 -4.14117647059E-01  1.48121000000E+02

  42  42   1    1 H     1.55882352941E-01 -4.33941176471E-01  1.48590000000E+02

  43  43   1    8 O    -1.74117647059E-01  1.41176470588E-01  1.49819000000E+02

  44  44   1    1 H    -1.66470588235E-01  1.21882352941E-01  1.48885000000E+02

  45  45   1    1 H    -1.23529411765E-01  1.37705882353E-01  1.50323000000E+02

  46  46   1    8 O    -1.85294117647E-01 -5.00000000000E-01  1.49370000000E+02

  47  47   1    1 H    -1.62941176471E-01  4.61294117647E-01  1.48724000000E+02

  48  48   1    1 H    -1.68235294118E-01 -4.45705882353E-01  1.49120000000E+02

  49  49   1    8 O     4.78235294118E-01  9.82352941176E-02  1.49470000000E+02

  50  50   1    1 H     4.36470588235E-01  9.47647058824E-02  1.50180000000E+02

  51  51   1    1 H    -4.71764705882E-01  7.59411764706E-02  1.49818000000E+02

  52  52   1    8 O     2.33529411765E-01 -3.81764705882E-01  1.48880000000E+02

  53  53   1    1 H     2.31764705882E-01 -3.23294117647E-01  1.48780000000E+02

  54  54   1    1 H     2.88823529412E-01 -3.99176470588E-01  1.49030000000E+02

  55  55   1    8 O     4.87647058824E-01  2.75882352941E-01  1.48990000000E+02

  56  56   1    1 H     4.99411764706E-01  2.19588235294E-01  1.49202000000E+02

  57  57   1    1 H     4.50000000000E-01  2.78411764706E-01  1.48222000000E+02

  58  58   1    8 O    -4.29411764706E-01 -2.50000000000E-01  1.48620000000E+02

  59  59   1    1 H    -4.47647058824E-01 -2.68588235294E-01  1.47723000000E+02

  60  60   1    1 H    -4.25882352941E-01 -1.91294117647E-01  1.48617000000E+02

  61  61   1    8 O     2.95294117647E-01  2.65294117647E-01  1.48180000000E+02

  62  62   1    1 H     2.61176470588E-01  3.13117647059E-01  1.48069000000E+02

  63  63   1    1 H     3.30588235294E-01  2.60000000000E-01  1.47391000000E+02

  64  64   1    8 O    -1.75294117647E-01 -3.32352941176E-01  1.48800000000E+02

  65  65   1    1 H    -1.31764705882E-01 -2.93647058824E-01  1.48890000000E+02

  66  66   1    1 H    -2.23529411765E-01 -3.04823529412E-01  1.48461000000E+02

  67  67   1    8 O     3.86470588235E-01 -4.46470588235E-01  1.49630000000E+02

  68  68   1    1 H     4.14705882353E-01 -3.99117647059E-01  1.49979000000E+02

  69  69   1    1 H     4.04117647059E-01 -4.94235294118E-01  1.50127000000E+02

 NUMBER OF SYMMETRY OPERATORS         :    1
 *******************************************************************************
 * GEOMETRY EDITING - INPUT COORDINATES ARE GIVEN IN ANGSTROM         
 *******************************************************************************

 ADDED TO THE HAMILTONIAN  1386 POINT CHARGES (COORDINATES IN ANGSTROM)
 THEY ARE CONSIDERED AS DUMMY ATOMS WITH Z=199

           X                   Y                   Z              CHARGE (AU)
 -1.020000000000E+00 -1.500000000000E-01  1.149800000000E+02 -8.476000000000E-01
 -6.200000000000E-01  7.430000000000E-01  1.151710000000E+02  4.238000000000E-01
 -3.000000000000E-01 -8.290000000000E-01  1.148600000000E+02  4.238000000000E-01
  8.470000000000E+00  1.410000000000E+00  1.434400000000E+02 -8.476000000000E-01
  7.980000000000E+00  1.620000000000E+00  1.425930000000E+02  4.238000000000E-01
 -8.280000000000E+00  2.262000000000E+00  1.439000000000E+02  4.238000000000E-01
  6.160000000000E+00  6.310000000000E+00  1.344290000000E+02 -8.476000000000E-01
  5.930000000000E+00  7.243000000000E+00  1.347050000000E+02  4.238000000000E-01
  6.430000000000E+00  5.782000000000E+00  1.352340000000E+02  4.238000000000E-01
  4.460000000000E+00  2.250000000000E+00  1.213600000000E+02 -8.476000000000E-01
  5.290000000000E+00  1.710000000000E+00  1.212980000000E+02  4.238000000000E-01
  4.380000000000E+00  2.649000000000E+00  1.222750000000E+02  4.238000000000E-01
 -2.980000000000E+00  2.860000000000E+00  1.413600000000E+02 -8.476000000000E-01
 -2.850000000000E+00  3.843000000000E+00  1.414890000000E+02  4.238000000000E-01
 -2.780000000000E+00  2.382000000000E+00  1.422140000000E+02  4.238000000000E-01
 -2.750000000000E+00 -4.990000000000E+00  1.426500000000E+02 -8.476000000000E-01
 -2.850000000000E+00 -4.091000000000E+00  1.430780000000E+02  4.238000000000E-01
 -2.750000000000E+00 -4.888000000000E+00  1.416560000000E+02  4.238000000000E-01
 -3.890000000000E+00  1.620000000000E+00  1.069300000000E+02 -8.476000000000E-01
 -3.530000000000E+00  9.320000000000E-01  1.063030000000E+02  4.238000000000E-01
 -4.580000000000E+00  1.199000000000E+00  1.075190000000E+02  4.238000000000E-01
 -4.100000000000E-01 -4.910000000000E+00  1.351210000000E+02 -8.476000000000E-01
  1.400000000000E-01 -5.123000000000E+00  1.343140000000E+02  4.238000000000E-01
 -1.220000000000E+00 -5.500000000000E+00  1.351380000000E+02  4.238000000000E-01
  8.600000000000E-01  3.130000000000E+00  1.332900000000E+02 -8.476000000000E-01
 -6.000000000000E-02  3.360000000000E+00  1.329970000000E+02  4.238000000000E-01
  9.900000000000E-01  2.142000000000E+00  1.332190000000E+02  4.238000000000E-01
 -6.000000000000E-01  6.360000000000E+00  1.327000000000E+02 -8.476000000000E-01
  3.100000000000E-01  5.949000000000E+00  1.326790000000E+02  4.238000000000E-01
 -6.000000000000E-01  7.160000000000E+00  1.333000000000E+02  4.238000000000E-01
 -7.520000000000E+00  3.420000000000E+00  1.450600000000E+02 -8.476000000000E-01
 -7.270000000000E+00  2.947000000000E+00  1.459020000000E+02  4.238000000000E-01
 -6.780000000000E+00  4.028000000000E+00  1.447790000000E+02  4.238000000000E-01
 -3.280000000000E+00 -1.870000000000E+00  1.340310000000E+02 -8.476000000000E-01
 -3.190000000000E+00 -1.244000000000E+00  1.348050000000E+02  4.238000000000E-01
 -4.250000000000E+00 -2.042000000000E+00  1.338570000000E+02  4.238000000000E-01
 -8.100000000000E-01  3.520000000000E+00  1.445200000000E+02 -8.476000000000E-01
 -2.600000000000E-01  3.838000000000E+00  1.437520000000E+02  4.238000000000E-01
 -2.700000000000E-01  3.539000000000E+00  1.453580000000E+02  4.238000000000E-01
 -6.020000000000E+00  1.490000000000E+00  1.471600000000E+02 -8.476000000000E-01
 -6.600000000000E+00  6.810000000000E-01  1.470570000000E+02  4.238000000000E-01
 -5.820000000000E+00  1.633000000000E+00  1.481290000000E+02  4.238000000000E-01
  6.850000000000E+00 -4.700000000000E-01  1.034900000000E+02 -8.476000000000E-01
  7.180000000000E+00 -3.200000000000E-01  1.044190000000E+02  4.238000000000E-01
  7.200000000000E+00 -1.336000000000E+00  1.031410000000E+02  4.238000000000E-01
 -2.600000000000E-01 -3.010000000000E+00  1.055790000000E+02 -8.476000000000E-01
  1.700000000000E-01 -3.350000000000E+00  1.064130000000E+02  4.238000000000E-01
 -1.250000000000E+00 -2.902000000000E+00  1.057360000000E+02  4.238000000000E-01
  7.280000000000E+00  5.340000000000E+00  1.433900000000E+02 -8.476000000000E-01
  8.060000000000E+00  5.764000000000E+00  1.438480000000E+02  4.238000000000E-01
  7.100000000000E+00  5.810000000000E+00  1.425250000000E+02  4.238000000000E-01
  4.300000000000E-01 -3.150000000000E+00  1.218100000000E+02 -8.476000000000E-01
  1.080000000000E+00 -2.421000000000E+00  1.216190000000E+02  4.238000000000E-01
 -4.400000000000E-01 -2.938000000000E+00  1.213680000000E+02  4.238000000000E-01
 -7.790000000000E+00  7.260000000000E+00  1.446000000000E+02 -8.476000000000E-01
 -7.550000000000E+00  7.171000000000E+00  1.455660000000E+02  4.238000000000E-01
  8.450000000000E+00  7.912000000000E+00  1.445020000000E+02  4.238000000000E-01
  1.050000000000E+00 -4.580000000000E+00  1.325400000000E+02 -8.476000000000E-01
  2.900000000000E-01 -3.961000000000E+00  1.323290000000E+02  4.238000000000E-01
  1.770000000000E+00 -4.469000000000E+00  1.318570000000E+02  4.238000000000E-01
 -4.720000000000E+00  1.550000000000E+00  1.334300000000E+02 -8.476000000000E-01
 -4.270000000000E+00  1.072000000000E+00  1.326800000000E+02  4.238000000000E-01
 -4.360000000000E+00  1.231000000000E+00  1.343030000000E+02  4.238000000000E-01
  5.250000000000E+00 -5.090000000000E+00  1.232200000000E+02 -8.476000000000E-01
  5.460000000000E+00 -5.883000000000E+00  1.237900000000E+02  4.238000000000E-01
  4.320000000000E+00 -5.185000000000E+00  1.228510000000E+02  4.238000000000E-01
  6.970000000000E+00 -1.330000000000E+00  1.412800000000E+02 -8.476000000000E-01
  7.830000000000E+00 -1.560000000000E+00  1.408410000000E+02  4.238000000000E-01
  7.130000000000E+00 -1.110000000000E+00  1.422420000000E+02  4.238000000000E-01
 -6.860000000000E+00 -7.700000000000E-01  1.022300000000E+02 -8.476000000000E-01
 -6.940000000000E+00  1.750000000000E-01  1.019100000000E+02  4.238000000000E-01
 -6.260000000000E+00 -1.280000000000E+00  1.016170000000E+02  4.238000000000E-01
  1.710000000000E+00 -5.660000000000E+00  1.092600000000E+02 -8.476000000000E-01
  1.550000000000E+00 -6.493000000000E+00  1.087290000000E+02  4.238000000000E-01
  2.570000000000E+00 -5.241000000000E+00  1.089830000000E+02  4.238000000000E-01
 -6.330000000000E+00 -1.150000000000E+00  1.263700000000E+02 -8.476000000000E-01
 -5.710000000000E+00 -1.929000000000E+00  1.264700000000E+02  4.238000000000E-01
 -7.200000000000E+00 -1.460000000000E+00  1.259690000000E+02  4.238000000000E-01
 -6.030000000000E+00 -4.630000000000E+00  1.411900000000E+02 -8.476000000000E-01
 -5.990000000000E+00 -5.082000000000E+00  1.402990000000E+02  4.238000000000E-01
 -6.430000000000E+00 -5.255000000000E+00  1.418640000000E+02  4.238000000000E-01
  4.170000000000E+00 -3.000000000000E-01  1.295700000000E+02 -8.476000000000E-01
  4.740000000000E+00 -1.108000000000E+00  1.294520000000E+02  4.238000000000E-01
  3.730000000000E+00 -3.320000000000E-01  1.304680000000E+02  4.238000000000E-01
  7.170000000000E+00  8.800000000000E-01  1.357200000000E+02 -8.476000000000E-01
  7.350000000000E+00  8.600000000000E-01  1.367030000000E+02  4.238000000000E-01
  8.010000000000E+00  6.790000000000E-01  1.352200000000E+02  4.238000000000E-01
  5.970000000000E+00  8.810000000000E-01  1.115390000000E+02 -8.476000000000E-01
  6.660000000000E+00  1.660000000000E-01  1.115430000000E+02  4.238000000000E-01
  5.250000000000E+00  6.550000000000E-01  1.122050000000E+02  4.238000000000E-01
 -3.380000000000E+00 -1.970000000000E+00  1.240400000000E+02 -8.476000000000E-01
 -2.450000000000E+00 -2.238000000000E+00  1.242810000000E+02  4.238000000000E-01
 -3.460000000000E+00 -9.730000000000E-01  1.240610000000E+02  4.238000000000E-01
  5.330000000000E+00  6.910000000000E+00  1.144210000000E+02 -8.476000000000E-01
  4.910000000000E+00  7.618000000000E+00  1.138470000000E+02  4.238000000000E-01
  5.190000000000E+00  6.016000000000E+00  1.139940000000E+02  4.238000000000E-01
  2.980000000000E+00  1.300000000000E+00  1.354000000000E+02 -8.476000000000E-01
  2.190000000000E+00  7.050000000000E-01  1.352330000000E+02  4.238000000000E-01
  3.200000000000E+00  1.801000000000E+00  1.345630000000E+02  4.238000000000E-01
  5.180000000000E+00 -2.609000000000E+00  1.062400000000E+02 -8.476000000000E-01
  4.250000000000E+00 -2.323000000000E+00  1.060010000000E+02  4.238000000000E-01
  5.780000000000E+00 -1.816000000000E+00  1.062210000000E+02  4.238000000000E-01
  8.240000000000E+00  5.270000000000E+00  1.213500000000E+02 -8.476000000000E-01
 -8.400000000000E+00  4.993000000000E+00  1.204620000000E+02  4.238000000000E-01
  7.950000000000E+00  6.227000000000E+00  1.213080000000E+02  4.238000000000E-01
 -6.750000000000E+00  7.930000000000E+00  1.406600000000E+02 -8.476000000000E-01
 -6.000000000000E+00  7.526000000000E+00  1.401410000000E+02  4.238000000000E-01
 -7.120000000000E+00 -8.281000000000E+00  1.401630000000E+02  4.238000000000E-01
 -5.900000000000E-01 -1.170000000000E+00  1.099200000000E+02 -8.476000000000E-01
 -1.500000000000E-01 -3.820000000000E-01  1.094910000000E+02  4.238000000000E-01
 -1.580000000000E+00 -1.032000000000E+00  1.099310000000E+02  4.238000000000E-01
 -5.080000000000E+00  7.670000000000E+00  1.360000000000E+02 -8.476000000000E-01
 -4.950000000000E+00 -8.406000000000E+00  1.363610000000E+02  4.238000000000E-01
 -4.940000000000E+00  7.003000000000E+00  1.367320000000E+02  4.238000000000E-01
 -8.380000000000E+00 -2.890000000000E+00  1.283000000000E+02 -8.476000000000E-01
  8.490000000000E+00 -2.541000000000E+00  1.273720000000E+02  4.238000000000E-01
 -8.420000000000E+00 -3.889000000000E+00  1.282890000000E+02  4.238000000000E-01
  6.740000000000E+00  2.510000000000E+00  1.060500000000E+02 -8.476000000000E-01
  7.300000000000E+00  2.392000000000E+00  1.052330000000E+02  4.238000000000E-01
  7.160000000000E+00  2.040000000000E+00  1.068220000000E+02  4.238000000000E-01
 -3.750000000000E+00  4.950000000000E+00  1.032200000000E+02 -8.476000000000E-01
 -2.770000000000E+00  4.801000000000E+00  1.033000000000E+02  4.238000000000E-01
 -3.940000000000E+00  5.497000000000E+00  1.024040000000E+02  4.238000000000E-01
  2.460000000000E+00  4.070000000000E+00  1.401200000000E+02 -8.476000000000E-01
  2.900000000000E+00  3.561000000000E+00  1.393830000000E+02  4.238000000000E-01
  3.140000000000E+00  4.622000000000E+00  1.406020000000E+02  4.238000000000E-01
  2.840000000000E+00  3.080000000000E+00  1.107400000000E+02 -8.476000000000E-01
  2.940000000000E+00  2.153000000000E+00  1.110990000000E+02  4.238000000000E-01
  3.720000000000E+00  3.421000000000E+00  1.104300000000E+02  4.238000000000E-01
  8.490000000000E+00  2.149000000000E+00  1.298700000000E+02 -8.476000000000E-01
 -8.300000000000E+00  1.276000000000E+00  1.303090000000E+02  4.238000000000E-01
  7.590000000000E+00  2.094000000000E+00  1.294380000000E+02  4.238000000000E-01
  4.960000000000E+00 -8.200000000000E-01  1.448890000000E+02 -8.476000000000E-01
  5.920000000000E+00 -7.690000000000E-01  1.446130000000E+02  4.238000000000E-01
  4.410000000000E+00 -1.158000000000E+00  1.441250000000E+02  4.238000000000E-01
 -8.060000000000E+00  5.060000000000E+00  1.137900000000E+02 -8.476000000000E-01
  8.280000000000E+00  4.456000000000E+00  1.133450000000E+02  4.238000000000E-01
 -8.460000000000E+00  5.973000000000E+00  1.138890000000E+02  4.238000000000E-01
 -2.600000000000E-01  4.960000000000E+00  1.079900000000E+02 -8.476000000000E-01
 -5.600000000000E-01  4.060000000000E+00  1.076730000000E+02  4.238000000000E-01
 -1.200000000000E-01  5.561000000000E+00  1.072030000000E+02  4.238000000000E-01
  7.110000000000E+00  4.130000000000E+00  1.464000000000E+02 -8.476000000000E-01
  7.870000000000E+00  4.150000000000E+00  1.457610000000E+02  4.238000000000E-01
  6.680000000000E+00  3.226000000000E+00  1.463800000000E+02  4.238000000000E-01
 -1.640000000000E+00 -6.500000000000E+00  1.403000000000E+02 -8.476000000000E-01
 -1.940000000000E+00 -7.439000000000E+00  1.401310000000E+02  4.238000000000E-01
 -2.390000000000E+00 -5.870000000000E+00  1.400910000000E+02  4.238000000000E-01
 -3.560000000000E+00 -4.550000000000E+00  1.396900000000E+02 -8.476000000000E-01
 -4.320000000000E+00 -4.258000000000E+00  1.402800000000E+02  4.238000000000E-01
 -3.580000000000E+00 -4.013000000000E+00  1.388460000000E+02  4.238000000000E-01
  7.750000000000E+00 -6.360000000000E+00  1.070100000000E+02 -8.476000000000E-01
  8.320000000000E+00 -5.622000000000E+00  1.073590000000E+02  4.238000000000E-01
  7.290000000000E+00 -6.060000000000E+00  1.061690000000E+02  4.238000000000E-01
 -3.100000000000E+00 -2.230000000000E+00  1.056500000000E+02 -8.476000000000E-01
 -3.310000000000E+00 -1.390000000000E+00  1.051500000000E+02  4.238000000000E-01
 -3.620000000000E+00 -2.990000000000E+00  1.052600000000E+02  4.238000000000E-01
 -4.900000000000E+00  4.930000000000E+00  1.195900000000E+02 -8.476000000000E-01
 -4.490000000000E+00  5.311000000000E+00  1.204140000000E+02  4.238000000000E-01
 -4.200000000000E+00  4.749000000000E+00  1.189080000000E+02  4.238000000000E-01
 -4.960000000000E+00 -4.180000000000E+00  1.176100000000E+02 -8.476000000000E-01
 -4.230000000000E+00 -3.531000000000E+00  1.174030000000E+02  4.238000000000E-01
 -4.740000000000E+00 -4.677000000000E+00  1.184490000000E+02  4.238000000000E-01
  8.000000000000E-02  7.220000000000E+00  1.022790000000E+02 -8.476000000000E-01
 -8.800000000000E-01  7.147000000000E+00  1.020430000000E+02  4.238000000000E-01
  5.100000000000E-01  7.916000000000E+00  1.017050000000E+02  4.238000000000E-01
  1.820000000000E+00 -8.130000000000E+00  1.003290000000E+02 -8.476000000000E-01
  2.290000000000E+00 -8.208000000000E+00  9.945300000000E+01  4.238000000000E-01
  2.430000000000E+00 -8.421000000000E+00  1.010660000000E+02  4.238000000000E-01
  2.200000000000E+00 -3.890000000000E+00  1.258700000000E+02 -8.476000000000E-01
  2.720000000000E+00 -4.188000000000E+00  1.266690000000E+02  4.238000000000E-01
  2.760000000000E+00 -3.280000000000E+00  1.253120000000E+02  4.238000000000E-01
  3.180000000000E+00  1.740000000000E+00  1.040800000000E+02 -8.476000000000E-01
  2.770000000000E+00  2.596000000000E+00  1.044020000000E+02  4.238000000000E-01
  3.730000000000E+00  1.340000000000E+00  1.048070000000E+02  4.238000000000E-01
  6.520000000000E+00 -4.710000000000E+00  1.261600000000E+02 -8.476000000000E-01
  5.670000000000E+00 -4.620000000000E+00  1.266870000000E+02  4.238000000000E-01
  6.520000000000E+00 -5.585000000000E+00  1.256770000000E+02  4.238000000000E-01
 -4.220000000000E+00  4.620000000000E+00  1.078900000000E+02 -8.476000000000E-01
 -4.680000000000E+00  3.758000000000E+00  1.076800000000E+02  4.238000000000E-01
 -4.880000000000E+00  5.370000000000E+00  1.078400000000E+02  4.238000000000E-01
  7.420000000000E+00  5.260000000000E+00  1.109000000000E+02 -8.476000000000E-01
  6.940000000000E+00  5.801000000000E+00  1.102090000000E+02  4.238000000000E-01
  8.310000000000E+00  5.668000000000E+00  1.110790000000E+02  4.238000000000E-01
  3.640000000000E+00 -7.660000000000E+00  1.229600000000E+02 -8.476000000000E-01
  3.250000000000E+00 -6.741000000000E+00  1.228800000000E+02  4.238000000000E-01
  2.900000000000E+00 -8.320000000000E+00  1.231100000000E+02  4.238000000000E-01
  3.270000000000E+00  6.780000000000E+00  1.115800000000E+02 -8.476000000000E-01
  2.580000000000E+00  6.363000000000E+00  1.109930000000E+02  4.238000000000E-01
  4.060000000000E+00  7.052000000000E+00  1.110250000000E+02  4.238000000000E-01
 -2.700000000000E+00 -5.150000000000E+00  1.319900000000E+02 -8.476000000000E-01
 -2.090000000000E+00 -4.378000000000E+00  1.321370000000E+02  4.238000000000E-01
 -2.500000000000E+00 -5.873000000000E+00  1.326490000000E+02  4.238000000000E-01
  4.310000000000E+00 -4.220000000000E+00  1.152500000000E+02 -8.476000000000E-01
  3.360000000000E+00 -4.268000000000E+00  1.155600000000E+02  4.238000000000E-01
  4.730000000000E+00 -5.123000000000E+00  1.153300000000E+02  4.238000000000E-01
 -9.200000000000E-01  3.000000000000E-01  1.205400000000E+02 -8.476000000000E-01
 -4.300000000000E-01  1.400000000000E-01  1.196850000000E+02  4.238000000000E-01
 -1.830000000000E+00  6.690000000000E-01  1.203390000000E+02  4.238000000000E-01
  3.970000000000E+00 -1.150000000000E+00  1.199000000000E+02 -8.476000000000E-01
  4.120000000000E+00 -1.499000000000E+00  1.189740000000E+02  4.238000000000E-01
  4.850000000000E+00 -1.071000000000E+00  1.203690000000E+02  4.238000000000E-01
  3.560000000000E+00 -1.990000000000E+00  1.097600000000E+02 -8.476000000000E-01
  3.640000000000E+00 -2.889000000000E+00  1.093300000000E+02  4.238000000000E-01
  4.420000000000E+00 -1.492000000000E+00  1.096590000000E+02  4.238000000000E-01
  6.150000000000E+00 -2.410000000000E+00  1.294400000000E+02 -8.476000000000E-01
  7.010000000000E+00 -2.641000000000E+00  1.289890000000E+02  4.238000000000E-01
  5.770000000000E+00 -3.227000000000E+00  1.298780000000E+02  4.238000000000E-01
  2.310000000000E+00 -4.480000000000E+00  1.295800000000E+02 -8.476000000000E-01
  1.400000000000E+00 -4.080000000000E+00  1.294090000000E+02  4.238000000000E-01
  2.830000000000E+00 -3.881000000000E+00  1.301890000000E+02  4.238000000000E-01
  3.840000000000E+00  2.900000000000E+00  1.245700000000E+02 -8.476000000000E-01
  3.620000000000E+00  3.863000000000E+00  1.244180000000E+02  4.238000000000E-01
  3.020000000000E+00  2.408000000000E+00  1.248590000000E+02  4.238000000000E-01
 -3.930000000000E+00 -1.470000000000E+00  1.392800000000E+02 -8.476000000000E-01
 -2.960000000000E+00 -1.238000000000E+00  1.392410000000E+02  4.238000000000E-01
 -4.430000000000E+00 -7.370000000000E-01  1.397410000000E+02  4.238000000000E-01
 -5.290000000000E+00  3.060000000000E+00  1.051100000000E+02 -8.476000000000E-01
 -4.670000000000E+00  2.562000000000E+00  1.057070000000E+02  4.238000000000E-01
 -4.840000000000E+00  3.259000000000E+00  1.042410000000E+02  4.238000000000E-01
 -8.900000000000E-01 -1.851000000000E+00  1.246000000000E+02 -8.476000000000E-01
 -1.280000000000E+00 -1.081000000000E+00  1.251050000000E+02  4.238000000000E-01
  7.000000000000E-02 -1.677000000000E+00  1.244220000000E+02  4.238000000000E-01
  7.590000000000E+00  8.030000000000E+00  1.031800000000E+02 -8.476000000000E-01
  7.120000000000E+00  7.222000000000E+00  1.028210000000E+02  4.238000000000E-01
  7.680000000000E+00  7.950000000000E+00  1.041720000000E+02  4.238000000000E-01
 -6.280000000000E+00  1.600000000000E+00  1.265100000000E+02 -8.476000000000E-01
 -6.320000000000E+00  6.010000000000E-01  1.264900000000E+02  4.238000000000E-01
 -7.210000000000E+00  1.970000000000E+00  1.264400000000E+02  4.238000000000E-01
  5.000000000000E-02  3.850000000000E+00  1.471700000000E+02 -8.476000000000E-01
  2.000000000000E-01  4.178000000000E+00  1.481020000000E+02  4.238000000000E-01
  4.900000000000E-01  2.960000000000E+00  1.470530000000E+02  4.238000000000E-01
 -7.440000000000E+00  4.740000000000E+00  1.346600000000E+02 -8.476000000000E-01
 -7.290000000000E+00  4.431000000000E+00  1.337210000000E+02  4.238000000000E-01
 -8.380000000000E+00  4.510000000000E+00  1.349410000000E+02  4.238000000000E-01
  4.800000000000E+00 -2.720000000000E+00  1.405800000000E+02 -8.476000000000E-01
  5.650000000000E+00 -2.291000000000E+00  1.408660000000E+02  4.238000000000E-01
  4.760000000000E+00 -2.759000000000E+00  1.395820000000E+02  4.238000000000E-01
  2.550000000000E+00  5.140000000000E+00  1.454700000000E+02 -8.476000000000E-01
  2.160000000000E+00  5.663000000000E+00  1.462320000000E+02  4.238000000000E-01
  2.480000000000E+00  4.162000000000E+00  1.456690000000E+02  4.238000000000E-01
  3.340000000000E+00 -5.370000000000E+00  1.037100000000E+02 -8.476000000000E-01
  3.490000000000E+00 -5.709000000000E+00  1.027830000000E+02  4.238000000000E-01
  2.370000000000E+00 -5.141000000000E+00  1.038190000000E+02  4.238000000000E-01
 -8.320000000000E+00 -5.300000000000E-01  1.118000000000E+02 -8.476000000000E-01
 -8.080000000000E+00 -4.320000000000E-01  1.127630000000E+02  4.238000000000E-01
 -7.780000000000E+00  9.900000000000E-02  1.112480000000E+02  4.238000000000E-01
  3.550000000000E+00  5.370000000000E+00  1.265900000000E+02 -8.476000000000E-01
  2.640000000000E+00  5.710000000000E+00  1.268520000000E+02  4.238000000000E-01
  3.740000000000E+00  5.628000000000E+00  1.256430000000E+02  4.238000000000E-01
  1.220000000000E+00  4.200000000000E-01  1.325990000000E+02 -8.476000000000E-01
  8.300000000000E-01  7.880000000000E-01  1.317560000000E+02  4.238000000000E-01
  2.170000000000E+00  1.700000000000E-01  1.324430000000E+02  4.238000000000E-01
 -2.680000000000E+00 -2.191000000000E+00  1.176000000000E+02 -8.476000000000E-01
 -2.790000000000E+00 -1.384000000000E+00  1.170170000000E+02  4.238000000000E-01
 -3.010000000000E+00 -1.978000000000E+00  1.185230000000E+02  4.238000000000E-01
  7.910000000000E+00 -4.660000000000E+00  1.445000000000E+02 -8.476000000000E-01
  6.910000000000E+00 -4.681000000000E+00  1.443810000000E+02  4.238000000000E-01
  8.160000000000E+00 -5.248000000000E+00  1.452670000000E+02  4.238000000000E-01
 -7.260000000000E+00  7.520000000000E+00  1.343900000000E+02 -8.476000000000E-01
 -7.710000000000E+00  6.639000000000E+00  1.345410000000E+02  4.238000000000E-01
 -6.340000000000E+00  7.489000000000E+00  1.347600000000E+02  4.238000000000E-01
  5.200000000000E+00 -7.570000000000E+00  1.046600000000E+02 -8.476000000000E-01
  5.280000000000E+00 -6.739000000000E+00  1.052110000000E+02  4.238000000000E-01
  5.280000000000E+00 -8.372000000000E+00  1.052520000000E+02  4.238000000000E-01
  8.090000000000E+00 -3.610000000000E+00  1.199800000000E+02 -8.476000000000E-01
  7.950000000000E+00 -4.214000000000E+00  1.207650000000E+02  4.238000000000E-01
  7.290000000000E+00 -3.661000000000E+00  1.193810000000E+02  4.238000000000E-01
 -2.420000000000E+00  2.200000000000E+00  1.276800000000E+02 -8.476000000000E-01
 -1.900000000000E+00  2.687000000000E+00  1.283770000000E+02  4.238000000000E-01
 -3.200000000000E+00  1.742000000000E+00  1.281100000000E+02  4.238000000000E-01
  3.800000000000E-01  3.000000000000E-02  1.454100000000E+02 -8.476000000000E-01
  1.000000000000E-01  2.900000000000E-02  1.444490000000E+02  4.238000000000E-01
 -3.900000000000E-01 -2.510000000000E-01  1.459780000000E+02  4.238000000000E-01
  1.920000000000E+00  6.510000000000E+00  1.476210000000E+02 -8.476000000000E-01
  1.870000000000E+00  7.470000000000E+00  1.478960000000E+02  4.238000000000E-01
  1.710000000000E+00  5.927000000000E+00  1.484060000000E+02  4.238000000000E-01
 -5.330000000000E+00 -2.070000000000E+00  1.005700000000E+02 -8.476000000000E-01
 -4.940000000000E+00 -1.361000000000E+00  9.998900000000E+01  4.238000000000E-01
 -5.670000000000E+00 -2.818000000000E+00  9.999900000000E+01  4.238000000000E-01
 -1.610000000000E+00 -5.800000000000E+00  1.112590000000E+02 -8.476000000000E-01
 -1.970000000000E+00 -6.068000000000E+00  1.121560000000E+02  4.238000000000E-01
 -1.340000000000E+00 -4.839000000000E+00  1.112830000000E+02  4.238000000000E-01
  1.410000000000E+00  8.110000000000E+00  1.258600000000E+02 -8.476000000000E-01
  1.530000000000E+00  8.121000000000E+00  1.248670000000E+02  4.238000000000E-01
  1.020000000000E+00 -8.016000000000E+00  1.261600000000E+02  4.238000000000E-01
 -5.880000000000E+00  7.000000000000E-01  1.380300000000E+02 -8.476000000000E-01
 -5.380000000000E+00  7.500000000000E-01  1.388950000000E+02  4.238000000000E-01
 -5.260000000000E+00  8.980000000000E-01  1.372730000000E+02  4.238000000000E-01
  7.410000000000E+00  4.400000000000E+00  1.364400000000E+02 -8.476000000000E-01
  6.510000000000E+00  3.964000000000E+00  1.364470000000E+02  4.238000000000E-01
  8.040000000000E+00  3.860000000000E+00  1.369920000000E+02  4.238000000000E-01
  8.190000000000E+00 -2.690000000000E+00  1.024300000000E+02 -8.476000000000E-01
 -8.280000000000E+00 -3.537000000000E+00  1.025290000000E+02  4.238000000000E-01
 -8.180000000000E+00 -1.928000000000E+00  1.022690000000E+02  4.238000000000E-01
  2.070000000000E+00  6.240000000000E+00  1.296500000000E+02 -8.476000000000E-01
  1.690000000000E+00  6.051000000000E+00  1.287430000000E+02  4.238000000000E-01
  1.560000000000E+00  6.994000000000E+00  1.300700000000E+02  4.238000000000E-01
 -7.750000000000E+00 -4.720000000000E+00  1.084300000000E+02 -8.476000000000E-01
 -7.860000000000E+00 -4.189000000000E+00  1.092710000000E+02  4.238000000000E-01
 -6.790000000000E+00 -4.720000000000E+00  1.081490000000E+02  4.238000000000E-01
 -7.690000000000E+00 -3.490000000000E+00  1.116100000000E+02 -8.476000000000E-01
 -7.850000000000E+00 -3.751000000000E+00  1.125620000000E+02  4.238000000000E-01
  8.430000000000E+00 -3.259000000000E+00  1.111780000000E+02  4.238000000000E-01
 -5.400000000000E-01 -8.490000000000E+00  1.341600000000E+02 -8.476000000000E-01
 -1.380000000000E+00 -8.026000000000E+00  1.344440000000E+02  4.238000000000E-01
 -1.800000000000E-01  7.983000000000E+00  1.349270000000E+02  4.238000000000E-01
 -3.210000000000E+00  3.420000000000E+00  1.153100000000E+02 -8.476000000000E-01
 -4.170000000000E+00  3.151000000000E+00  1.153890000000E+02  4.238000000000E-01
 -3.130000000000E+00  4.139000000000E+00  1.146210000000E+02  4.238000000000E-01
  1.790000000000E+00  3.900000000000E+00  1.048700000000E+02 -8.476000000000E-01
  1.820000000000E+00  4.803000000000E+00  1.044420000000E+02  4.238000000000E-01
  1.930000000000E+00  3.993000000000E+00  1.058560000000E+02  4.238000000000E-01
  2.830000000000E+00  3.500000000000E-01  1.109890000000E+02 -8.476000000000E-01
  3.000000000000E+00 -2.340000000000E-01  1.101970000000E+02  4.238000000000E-01
  1.970000000000E+00  6.900000000000E-02  1.114240000000E+02  4.238000000000E-01
  6.890000000000E+00 -7.219000000000E+00  1.010400000000E+02 -8.476000000000E-01
  6.920000000000E+00 -7.665000000000E+00  1.019350000000E+02  4.238000000000E-01
  6.980000000000E+00 -7.908000000000E+00  1.003210000000E+02  4.238000000000E-01
  7.050000000000E+00 -1.100000000000E+00  1.171900000000E+02 -8.476000000000E-01
  6.830000000000E+00 -1.370000000000E+00  1.162500000000E+02  4.238000000000E-01
  8.040000000000E+00 -1.060000000000E+00  1.173110000000E+02  4.238000000000E-01
 -4.000000000000E-01  5.000000000000E-01  1.425100000000E+02 -8.476000000000E-01
 -1.190000000000E+00  8.100000000000E-01  1.430390000000E+02  4.238000000000E-01
 -2.800000000000E-01  1.100000000000E+00  1.417210000000E+02  4.238000000000E-01
  7.580000000000E+00  7.711000000000E+00  1.413900000000E+02 -8.476000000000E-01
  7.000000000000E+00  8.234000000000E+00  1.420150000000E+02  4.238000000000E-01
  8.490000000000E+00  8.114000000000E+00  1.413670000000E+02  4.238000000000E-01
  1.820000000000E+00 -7.400000000000E-01  1.213310000000E+02 -8.476000000000E-01
  1.130000000000E+00 -2.570000000000E-01  1.207830000000E+02  4.238000000000E-01
  2.620000000000E+00 -9.280000000000E-01  1.207690000000E+02  4.238000000000E-01
 -7.800000000000E+00 -2.670000000000E+00  1.402400000000E+02 -8.476000000000E-01
 -7.140000000000E+00 -2.428000000000E+00  1.395370000000E+02  4.238000000000E-01
 -7.390000000000E+00 -3.308000000000E+00  1.408890000000E+02  4.238000000000E-01
 -3.360000000000E+00 -8.380000000000E+00  1.331100000000E+02 -8.476000000000E-01
 -4.290000000000E+00  8.288000000000E+00  1.329080000000E+02  4.238000000000E-01
 -2.720000000000E+00  8.231000000000E+00  1.324520000000E+02  4.238000000000E-01
  4.830000000000E+00 -7.510000000000E-01  1.357900000000E+02 -8.476000000000E-01
  4.040000000000E+00 -1.560000000000E-01  1.356290000000E+02  4.238000000000E-01
  5.670000000000E+00 -2.150000000000E-01  1.357190000000E+02  4.238000000000E-01
 -2.540000000000E+00  1.210000000000E+00  1.003800000000E+02 -8.476000000000E-01
 -1.550000000000E+00  1.217000000000E+00  1.004900000000E+02  4.238000000000E-01
 -2.850000000000E+00  2.100000000000E+00  1.000400000000E+02  4.238000000000E-01
  7.280000000000E+00 -7.500000000000E-01  1.064000000000E+02 -8.476000000000E-01
  7.040000000000E+00 -8.940000000000E-01  1.073600000000E+02  4.238000000000E-01
  7.450000000000E+00 -1.632000000000E+00  1.059640000000E+02  4.238000000000E-01
 -5.280000000000E+00  7.300000000000E+00  1.314500000000E+02 -8.476000000000E-01
 -4.670000000000E+00  6.530000000000E+00  1.312620000000E+02  4.238000000000E-01
 -5.730000000000E+00  7.591000000000E+00  1.306010000000E+02  4.238000000000E-01
 -3.020000000000E+00 -7.700000000000E+00  1.435500000000E+02 -8.476000000000E-01
 -2.720000000000E+00 -6.826000000000E+00  1.431690000000E+02  4.238000000000E-01
 -2.380000000000E+00 -8.420000000000E+00  1.432800000000E+02  4.238000000000E-01
  8.320000000000E+00 -1.100000000000E-01  1.236900000000E+02 -8.476000000000E-01
  7.990000000000E+00 -9.250000000000E-01  1.241710000000E+02  4.238000000000E-01
 -8.230000000000E+00 -3.810000000000E-01  1.228430000000E+02  4.238000000000E-01
  3.460000000000E+00  6.589000000000E+00  1.431400000000E+02 -8.476000000000E-01
  3.000000000000E+00  6.079000000000E+00  1.438670000000E+02  4.238000000000E-01
  4.030000000000E+00  5.966000000000E+00  1.426060000000E+02  4.238000000000E-01
 -8.280000000000E+00 -6.150000000000E+00  1.466100000000E+02 -8.476000000000E-01
 -7.500000000000E+00 -6.618000000000E+00  1.470200000000E+02  4.238000000000E-01
  7.900000000000E+00 -6.728000000000E+00  1.466890000000E+02  4.238000000000E-01
  1.740000000000E+00 -7.910000000000E+00  1.129600000000E+02 -8.476000000000E-01
  1.410000000000E+00  8.433000000000E+00  1.122800000000E+02  4.238000000000E-01
  1.480000000000E+00 -8.219000000000E+00  1.138750000000E+02  4.238000000000E-01
  2.120000000000E+00  2.410000000000E+00  1.456000000000E+02 -8.476000000000E-01
  1.280000000000E+00  1.879000000000E+00  1.454400000000E+02  4.238000000000E-01
  2.660000000000E+00  2.430000000000E+00  1.447640000000E+02  4.238000000000E-01
 -3.980000000000E+00 -8.400000000000E+00  1.459300000000E+02 -8.476000000000E-01
 -3.350000000000E+00  8.031000000000E+00  1.464480000000E+02  4.238000000000E-01
 -3.640000000000E+00 -8.280000000000E+00  1.449980000000E+02  4.238000000000E-01
 -4.000000000000E-01 -7.500000000000E+00  1.045100000000E+02 -8.476000000000E-01
  2.800000000000E-01 -6.900000000000E+00  1.040890000000E+02  4.238000000000E-01
 -1.040000000000E+00 -6.952000000000E+00  1.050490000000E+02  4.238000000000E-01
  1.780000000000E+00  1.619000000000E+00  1.254200000000E+02 -8.476000000000E-01
  1.200000000000E+00  1.094000000000E+00  1.247980000000E+02  4.238000000000E-01
  2.070000000000E+00  1.036000000000E+00  1.261780000000E+02  4.238000000000E-01
 -8.100000000000E+00  6.090000000000E+00  1.280200000000E+02 -8.476000000000E-01
 -7.750000000000E+00  5.990000000000E+00  1.270920000000E+02  4.238000000000E-01
  7.900000000000E+00  6.120000000000E+00  1.279900000000E+02  4.238000000000E-01
  6.480000000000E+00  6.250000000000E+00  1.169700000000E+02 -8.476000000000E-01
  6.150000000000E+00  6.680000000000E+00  1.178100000000E+02  4.238000000000E-01
  6.080000000000E+00  6.721000000000E+00  1.161790000000E+02  4.238000000000E-01
 -1.800000000000E-01 -3.930000000000E+00  1.083000000000E+02 -8.476000000000E-01
 -2.400000000000E-01 -3.072000000000E+00  1.088100000000E+02  4.238000000000E-01
  5.900000000000E-01 -4.469000000000E+00  1.086410000000E+02  4.238000000000E-01
 -6.380000000000E+00 -2.690000000000E+00  1.039800000000E+02 -8.476000000000E-01
 -7.200000000000E+00 -2.861000000000E+00  1.045290000000E+02  4.238000000000E-01
 -6.520000000000E+00 -1.872000000000E+00  1.034210000000E+02  4.238000000000E-01
  7.970000000000E+00  1.391000000000E+00  1.083500000000E+02 -8.476000000000E-01
  8.490000000000E+00  2.156000000000E+00  1.087180000000E+02  4.238000000000E-01
 -8.470000000000E+00  5.650000000000E-01  1.083500000000E+02  4.238000000000E-01
 -2.950000000000E+00 -6.790000000000E+00  1.298500000000E+02 -8.476000000000E-01
 -2.930000000000E+00 -7.789000000000E+00  1.298800000000E+02  4.238000000000E-01
 -3.030000000000E+00 -6.430000000000E+00  1.307800000000E+02  4.238000000000E-01
  3.500000000000E-01  6.670000000000E+00  1.407200000000E+02 -8.476000000000E-01
  8.700000000000E-01  7.521000000000E+00  1.407710000000E+02  4.238000000000E-01
  9.200000000000E-01  5.908000000000E+00  1.410210000000E+02  4.238000000000E-01
  1.870000000000E+00 -2.700000000000E+00  1.444910000000E+02 -8.476000000000E-01
  2.520000000000E+00 -2.538000000000E+00  1.437560000000E+02  4.238000000000E-01
  9.500000000000E-01 -2.428000000000E+00  1.441860000000E+02  4.238000000000E-01
  8.000000000000E+00 -5.600000000000E+00  1.161700000000E+02 -8.476000000000E-01
  8.140000000000E+00 -4.619000000000E+00  1.160300000000E+02  4.238000000000E-01
 -8.110000000000E+00 -6.048000000000E+00  1.162800000000E+02  4.238000000000E-01
  4.450000000000E+00 -7.480000000000E+00  1.131200000000E+02 -8.476000000000E-01
  4.560000000000E+00 -7.048000000000E+00  1.140150000000E+02  4.238000000000E-01
  3.510000000000E+00 -7.809000000000E+00  1.130210000000E+02  4.238000000000E-01
  8.900000000000E-01 -1.920000000000E+00  1.144200000000E+02 -8.476000000000E-01
  1.240000000000E+00 -2.309000000000E+00  1.152690000000E+02  4.238000000000E-01
  1.440000000000E+00 -2.240000000000E+00  1.136490000000E+02  4.238000000000E-01
 -8.110000000000E+00 -4.430000000000E+00  1.363500000000E+02 -8.476000000000E-01
  8.150000000000E+00 -4.422000000000E+00  1.370250000000E+02  4.238000000000E-01
 -8.160000000000E+00 -5.276000000000E+00  1.358180000000E+02  4.238000000000E-01
  3.080000000000E+00 -4.460000000000E+00  1.463300000000E+02 -8.476000000000E-01
  2.670000000000E+00 -3.888000000000E+00  1.456180000000E+02  4.238000000000E-01
  2.350000000000E+00 -4.861000000000E+00  1.468900000000E+02  4.238000000000E-01
  5.780000000000E+00  3.280000000000E+00  1.435400000000E+02 -8.476000000000E-01
  6.130000000000E+00  2.811000000000E+00  1.427330000000E+02  4.238000000000E-01
  6.160000000000E+00  4.200000000000E+00  1.435910000000E+02  4.238000000000E-01
 -1.020000000000E+00  5.070000000000E+00  1.208100000000E+02 -8.476000000000E-01
 -4.100000000000E-01  4.497000000000E+00  1.213530000000E+02  4.238000000000E-01
 -8.000000000000E-01  4.970000000000E+00  1.198400000000E+02  4.238000000000E-01
  2.500000000000E-01  2.890000000000E+00  1.121100000000E+02 -8.476000000000E-01
  1.040000000000E+00  3.269000000000E+00  1.116290000000E+02  4.238000000000E-01
  6.000000000000E-02  1.969000000000E+00  1.117690000000E+02  4.238000000000E-01
 -7.420000000000E+00  4.030000000000E+00  1.190010000000E+02 -8.476000000000E-01
 -6.520000000000E+00  4.443000000000E+00  1.191360000000E+02  4.238000000000E-01
 -7.790000000000E+00  4.314000000000E+00  1.181150000000E+02  4.238000000000E-01
 -1.140000000000E+00  2.730000000000E+00  1.071400000000E+02 -8.476000000000E-01
 -2.090000000000E+00  2.454000000000E+00  1.073290000000E+02  4.238000000000E-01
 -5.200000000000E-01  1.994000000000E+00  1.074080000000E+02  4.238000000000E-01
  6.870000000000E+00 -6.500000000000E-01  1.314200000000E+02 -8.476000000000E-01
  6.500000000000E+00 -1.297000000000E+00  1.307530000000E+02  4.238000000000E-01
  7.860000000000E+00 -6.200000000000E-01  1.313400000000E+02  4.238000000000E-01
 -7.640000000000E+00  4.140000000000E+00  1.385700000000E+02 -8.476000000000E-01
 -7.140000000000E+00  3.930000000000E+00  1.394100000000E+02  4.238000000000E-01
 -8.160000000000E+00  4.991000000000E+00  1.386900000000E+02  4.238000000000E-01
  3.700000000000E-01  6.660000000000E+00  1.361700000000E+02 -8.476000000000E-01
 -2.400000000000E-01  6.334000000000E+00  1.368910000000E+02  4.238000000000E-01
  8.000000000000E-01  5.879000000000E+00  1.357240000000E+02  4.238000000000E-01
  6.750000000000E+00  2.060000000000E+00  1.414400000000E+02 -8.476000000000E-01
  6.540000000000E+00  1.198000000000E+00  1.409750000000E+02  4.238000000000E-01
  6.430000000000E+00  2.824000000000E+00  1.408800000000E+02  4.238000000000E-01
  4.520000000000E+00 -1.730000000000E+00  1.171900000000E+02 -8.476000000000E-01
  4.320000000000E+00 -1.561000000000E+00  1.162240000000E+02  4.238000000000E-01
  5.480000000000E+00 -1.539000000000E+00  1.173700000000E+02  4.238000000000E-01
  7.430000000000E+00  7.380000000000E+00  1.253100000000E+02 -8.476000000000E-01
  7.000000000000E+00  7.008000000000E+00  1.261350000000E+02  4.238000000000E-01
  8.390000000000E+00  7.110000000000E+00  1.252790000000E+02  4.238000000000E-01
 -2.470000000000E+00  1.300000000000E+00  1.439200000000E+02 -8.476000000000E-01
 -2.100000000000E+00  1.938000000000E+00  1.445960000000E+02  4.238000000000E-01
 -3.200000000000E+00  7.590000000000E-01  1.443380000000E+02  4.238000000000E-01
  7.800000000000E-01 -8.210000000000E+00  1.300000000000E+02 -8.476000000000E-01
  1.700000000000E-01 -7.433000000000E+00  1.298320000000E+02  4.238000000000E-01
  1.210000000000E+00 -8.108000000000E+00  1.308960000000E+02  4.238000000000E-01
 -7.900000000000E+00 -2.980000000000E+00  1.151100000000E+02 -8.476000000000E-01
 -7.490000000000E+00 -2.188000000000E+00  1.146600000000E+02  4.238000000000E-01
 -7.590000000000E+00 -3.029000000000E+00  1.160570000000E+02  4.238000000000E-01
  1.720000000000E+00  6.610000000000E+00  1.172000000000E+02 -8.476000000000E-01
  9.300000000000E-01  6.989000000000E+00  1.167030000000E+02  4.238000000000E-01
  2.550000000000E+00  6.739000000000E+00  1.166610000000E+02  4.238000000000E-01
 -8.340000000000E+00  1.010000000000E+00  1.190200000000E+02 -8.476000000000E-01
  8.100000000000E+00  1.089000000000E+00  1.181890000000E+02  4.238000000000E-01
 -7.710000000000E+00  1.778000000000E+00  1.190710000000E+02  4.238000000000E-01
 -8.300000000000E-01 -4.280000000000E+00  1.171700000000E+02 -8.476000000000E-01
 -6.800000000000E-01 -4.713000000000E+00  1.162810000000E+02  4.238000000000E-01
 -1.580000000000E+00 -3.620000000000E+00  1.170940000000E+02  4.238000000000E-01
  5.580000000000E+00  5.200000000000E-01  1.089700000000E+02 -8.476000000000E-01
  5.410000000000E+00  9.010000000000E-01  1.098790000000E+02  4.238000000000E-01
  6.510000000000E+00  7.210000000000E-01  1.086920000000E+02  4.238000000000E-01
 -3.900000000000E+00 -6.970000000000E+00  1.378090000000E+02 -8.476000000000E-01
 -3.490000000000E+00 -7.448000000000E+00  1.385840000000E+02  4.238000000000E-01
 -4.700000000000E+00 -6.454000000000E+00  1.381250000000E+02  4.238000000000E-01
  4.550000000000E+00 -5.810000000000E+00  1.010300000000E+02 -8.476000000000E-01
  4.690000000000E+00 -4.830000000000E+00  1.008910000000E+02  4.238000000000E-01
  5.420000000000E+00 -6.286000000000E+00  1.009810000000E+02  4.238000000000E-01
 -1.900000000000E+00 -2.600000000000E-01  1.469200000000E+02 -8.476000000000E-01
 -1.320000000000E+00 -3.380000000000E-01  1.477310000000E+02  4.238000000000E-01
 -2.300000000000E+00  6.570000000000E-01  1.468820000000E+02  4.238000000000E-01
  0.000000000000E+00  6.970000000000E+00  1.119700000000E+02 -8.476000000000E-01
 -4.600000000000E-01  6.488000000000E+00  1.127210000000E+02  4.238000000000E-01
  5.000000000000E-01  6.315000000000E+00  1.114070000000E+02  4.238000000000E-01
 -6.070000000000E+00 -4.570000000000E+00  1.001700000000E+02 -8.476000000000E-01
 -6.530000000000E+00 -5.140000000000E+00  9.948400000000E+01  4.238000000000E-01
 -6.600000000000E+00 -4.593000000000E+00  1.010210000000E+02  4.238000000000E-01
  5.350000000000E+00 -8.450000000000E+00  1.365100000000E+02 -8.476000000000E-01
  4.420000000000E+00  8.197000000000E+00  1.365720000000E+02  4.238000000000E-01
  5.350000000000E+00 -7.582000000000E+00  1.360120000000E+02  4.238000000000E-01
  8.200000000000E-01 -5.100000000000E-01  1.352200000000E+02 -8.476000000000E-01
  5.800000000000E-01 -3.290000000000E-01  1.342650000000E+02  4.238000000000E-01
  1.000000000000E+00 -1.485000000000E+00  1.353390000000E+02  4.238000000000E-01
  6.180000000000E+00  4.560000000000E+00  1.231300000000E+02 -8.476000000000E-01
  6.540000000000E+00  3.798000000000E+00  1.236630000000E+02  4.238000000000E-01
  6.840000000000E+00  4.831000000000E+00  1.224330000000E+02  4.238000000000E-01
  1.860000000000E+00  4.680000000000E+00  1.352100000000E+02 -8.476000000000E-01
  1.420000000000E+00  3.997000000000E+00  1.346260000000E+02  4.238000000000E-01
  2.820000000000E+00  4.768000000000E+00  1.349560000000E+02  4.238000000000E-01
  5.830000000000E+00 -7.360000000000E+00  1.245600000000E+02 -8.476000000000E-01
  4.980000000000E+00 -7.580000000000E+00  1.240690000000E+02  4.238000000000E-01
  6.370000000000E+00 -8.192000000000E+00  1.246810000000E+02  4.238000000000E-01
 -2.220000000000E+00 -5.600000000000E+00  1.195300000000E+02 -8.476000000000E-01
 -1.690000000000E+00 -5.120000000000E+00  1.188340000000E+02  4.238000000000E-01
 -2.380000000000E+00 -4.993000000000E+00  1.203110000000E+02  4.238000000000E-01
  4.210000000000E+00  6.870000000000E+00  1.056400000000E+02 -8.476000000000E-01
  4.740000000000E+00  6.065000000000E+00  1.058970000000E+02  4.238000000000E-01
  3.580000000000E+00  6.629000000000E+00  1.049010000000E+02  4.238000000000E-01
  3.600000000000E-01  3.450000000000E+00  1.013900000000E+02 -8.476000000000E-01
  1.210000000000E+00  3.939000000000E+00  1.012400000000E+02  4.238000000000E-01
  3.600000000000E-01  2.605000000000E+00  1.008570000000E+02  4.238000000000E-01
  9.000000000000E-02 -5.100000000000E+00  1.417500000000E+02 -8.476000000000E-01
 -4.900000000000E-01 -4.519000000000E+00  1.423210000000E+02  4.238000000000E-01
 -4.500000000000E-01 -5.839000000000E+00  1.413600000000E+02  4.238000000000E-01
  2.370000000000E+00  9.600000000000E-01  1.280000000000E+02 -8.476000000000E-01
  2.750000000000E+00  1.879000000000E+00  1.279130000000E+02  4.238000000000E-01
  2.910000000000E+00  4.320000000000E-01  1.286520000000E+02  4.238000000000E-01
 -3.860000000000E+00  9.600000000000E-01  1.360100000000E+02 -8.476000000000E-01
 -3.310000000000E+00  1.640000000000E-01  1.362580000000E+02  4.238000000000E-01
 -3.300000000000E+00  1.786000000000E+00  1.360680000000E+02  4.238000000000E-01
 -4.160000000000E+00  6.590000000000E+00  1.255400000000E+02 -8.476000000000E-01
 -3.720000000000E+00  5.869000000000E+00  1.260690000000E+02  4.238000000000E-01
 -3.710000000000E+00  7.462000000000E+00  1.257090000000E+02  4.238000000000E-01
 -7.940000000000E+00  5.110000000000E+00  1.165090000000E+02 -8.476000000000E-01
 -7.570000000000E+00  4.999000000000E+00  1.155870000000E+02  4.238000000000E-01
  8.140000000000E+00  5.500000000000E+00  1.164540000000E+02  4.238000000000E-01
  8.050000000000E+00  8.010000000000E+00  1.369090000000E+02 -8.476000000000E-01
  7.070000000000E+00  8.031000000000E+00  1.366730000000E+02  4.238000000000E-01
 -8.410000000000E+00  7.841000000000E+00  1.360850000000E+02  4.238000000000E-01
 -6.470000000000E+00  6.770000000000E+00  1.076500000000E+02 -8.476000000000E-01
 -6.050000000000E+00  7.668000000000E+00  1.075170000000E+02  4.238000000000E-01
 -6.410000000000E+00  6.244000000000E+00  1.068020000000E+02  4.238000000000E-01
  2.230000000000E+00  8.390000000000E+00  1.378100000000E+02 -8.476000000000E-01
  1.620000000000E+00  7.784000000000E+00  1.373030000000E+02  4.238000000000E-01
  1.700000000000E+00 -7.910000000000E+00  1.382800000000E+02  4.238000000000E-01
  5.170000000000E+00 -4.590000000000E+00  1.126900000000E+02 -8.476000000000E-01
  4.570000000000E+00 -4.160000000000E+00  1.133680000000E+02  4.238000000000E-01
  4.750000000000E+00 -5.440000000000E+00  1.123690000000E+02  4.238000000000E-01
 -5.530000000000E+00  4.310000000000E+00  1.402500000000E+02 -8.476000000000E-01
 -5.280000000000E+00  4.118000000000E+00  1.411980000000E+02  4.238000000000E-01
 -4.760000000000E+00  4.729000000000E+00  1.397760000000E+02  4.238000000000E-01
  4.410000000000E+00  2.990000000000E+00  1.336600000000E+02 -8.476000000000E-01
  4.990000000000E+00  2.178000000000E+00  1.336300000000E+02  4.238000000000E-01
  4.770000000000E+00  3.683000000000E+00  1.330370000000E+02  4.238000000000E-01
  8.020000000000E+00  5.190000000000E+00  1.045300000000E+02 -8.476000000000E-01
  7.240000000000E+00  5.320000000000E+00  1.039160000000E+02  4.238000000000E-01
  7.700000000000E+00  5.219000000000E+00  1.054790000000E+02  4.238000000000E-01
 -8.450000000000E+00  2.570000000000E+00  1.035900000000E+02 -8.476000000000E-01
 -8.170000000000E+00  3.507000000000E+00  1.037910000000E+02  4.238000000000E-01
 -7.880000000000E+00  2.197000000000E+00  1.028580000000E+02  4.238000000000E-01
 -8.900000000000E-01 -3.240000000000E+00  1.116300000000E+02 -8.476000000000E-01
 -1.370000000000E+00 -2.921000000000E+00  1.124520000000E+02  4.238000000000E-01
 -5.900000000000E-01 -2.453000000000E+00  1.110910000000E+02  4.238000000000E-01
 -6.440000000000E+00  1.880000000000E+00  1.238600000000E+02 -8.476000000000E-01
 -6.990000000000E+00  1.040000000000E+00  1.238170000000E+02  4.238000000000E-01
 -6.200000000000E+00  2.073000000000E+00  1.248110000000E+02  4.238000000000E-01
 -1.080000000000E+00  7.530000000000E+00  1.431500000000E+02 -8.476000000000E-01
 -5.700000000000E-01  7.170000000000E+00  1.423700000000E+02  4.238000000000E-01
 -5.100000000000E-01  7.490000000000E+00  1.439700000000E+02  4.238000000000E-01
  1.200000000000E-01 -8.600000000000E-01  1.185300000000E+02 -8.476000000000E-01
 -5.000000000000E-01 -1.452000000000E+00  1.180180000000E+02  4.238000000000E-01
  8.900000000000E-01 -6.110000000000E-01  1.179510000000E+02  4.238000000000E-01
 -8.450000000000E+00  8.240000000000E+00  1.059900000000E+02 -8.476000000000E-01
 -7.790000000000E+00  7.662000000000E+00  1.064590000000E+02  4.238000000000E-01
  8.220000000000E+00 -8.047000000000E+00  1.066130000000E+02  4.238000000000E-01
 -4.250000000000E+00 -4.900000000000E+00  1.228200000000E+02 -8.476000000000E-01
 -3.730000000000E+00 -4.200000000000E+00  1.223300000000E+02  4.238000000000E-01
 -4.950000000000E+00 -4.461000000000E+00  1.233880000000E+02  4.238000000000E-01
  4.970000000000E+00  5.360000000000E+00  1.411810000000E+02 -8.476000000000E-01
  5.450000000000E+00  5.021000000000E+00  1.403730000000E+02  4.238000000000E-01
  4.810000000000E+00  6.343000000000E+00  1.410860000000E+02  4.238000000000E-01
 -2.530000000000E+00  1.801000000000E+00  1.030800000000E+02 -8.476000000000E-01
 -2.180000000000E+00  2.692000000000E+00  1.033600000000E+02  4.238000000000E-01
 -2.560000000000E+00  1.748000000000E+00  1.020820000000E+02  4.238000000000E-01
 -7.440000000000E+00 -6.220000000000E+00  1.430000000000E+02 -8.476000000000E-01
 -8.020000000000E+00 -5.484000000000E+00  1.433620000000E+02  4.238000000000E-01
 -7.890000000000E+00 -7.100000000000E+00  1.431590000000E+02  4.238000000000E-01
 -6.120000000000E+00 -2.400000000000E+00  1.380790000000E+02 -8.476000000000E-01
 -6.480000000000E+00 -1.905000000000E+00  1.372870000000E+02  4.238000000000E-01
 -5.150000000000E+00 -2.220000000000E+00  1.381710000000E+02  4.238000000000E-01
  5.760000000000E+00  4.930000000000E+00  1.001700000000E+02 -8.476000000000E-01
  4.790000000000E+00  4.880000000000E+00  1.004410000000E+02  4.238000000000E-01
  5.820000000000E+00  5.050000000000E+00  9.917900000000E+01  4.238000000000E-01
 -4.330000000000E+00  2.040000000000E+00  1.116500000000E+02 -8.476000000000E-01
 -3.980000000000E+00  1.280000000000E+00  1.111020000000E+02  4.238000000000E-01
 -3.600000000000E+00  2.687000000000E+00  1.118350000000E+02  4.238000000000E-01
  4.810000000000E+00 -2.900000000000E-01  1.268600000000E+02 -8.476000000000E-01
  4.750000000000E+00 -3.110000000000E-01  1.278580000000E+02  4.238000000000E-01
  4.700000000000E+00  6.510000000000E-01  1.265390000000E+02  4.238000000000E-01
 -6.130000000000E+00 -7.460000000000E+00  1.252900000000E+02 -8.476000000000E-01
 -5.490000000000E+00 -7.378000000000E+00  1.260520000000E+02  4.238000000000E-01
 -6.230000000000E+00 -8.424000000000E+00  1.250410000000E+02  4.238000000000E-01
 -6.800000000000E+00  3.050000000000E+00  1.083300000000E+02 -8.476000000000E-01
 -6.780000000000E+00  2.919000000000E+00  1.093210000000E+02  4.238000000000E-01
 -6.420000000000E+00  2.244000000000E+00  1.078780000000E+02  4.238000000000E-01
  7.350000000000E+00  3.030000000000E+00  1.125600000000E+02 -8.476000000000E-01
  7.110000000000E+00  2.106000000000E+00  1.122620000000E+02  4.238000000000E-01
  7.130000000000E+00  3.682000000000E+00  1.118330000000E+02  4.238000000000E-01
  6.700000000000E+00 -7.870000000000E+00  1.468690000000E+02 -8.476000000000E-01
  6.620000000000E+00 -8.074000000000E+00  1.478460000000E+02  4.238000000000E-01
  6.610000000000E+00  8.283000000000E+00  1.463450000000E+02  4.238000000000E-01
  1.400000000000E-01  2.450000000000E+00  1.407000000000E+02 -8.476000000000E-01
  9.300000000000E-01  2.819000000000E+00  1.402120000000E+02  4.238000000000E-01
 -6.900000000000E-01  2.629000000000E+00  1.401720000000E+02  4.238000000000E-01
  9.100000000000E-01 -1.850000000000E+00  1.481290000000E+02 -8.476000000000E-01
  1.470000000000E+00 -1.785000000000E+00  1.473070000000E+02  4.238000000000E-01
  6.800000000000E-01 -9.300000000000E-01  1.484540000000E+02  4.238000000000E-01
 -3.060000000000E+00 -2.770000000000E+00  1.212700000000E+02 -8.476000000000E-01
 -2.950000000000E+00 -2.034000000000E+00  1.206020000000E+02  4.238000000000E-01
 -3.510000000000E+00 -2.412000000000E+00  1.220890000000E+02  4.238000000000E-01
  5.500000000000E-01  1.100000000000E+00  1.088800000000E+02 -8.476000000000E-01
  9.300000000000E-01  1.099000000000E+00  1.079550000000E+02  4.238000000000E-01
  1.080000000000E+00  1.710000000000E+00  1.094610000000E+02  4.238000000000E-01
 -7.050000000000E+00  6.330000000000E+00  1.254100000000E+02 -8.476000000000E-01
 -7.380000000000E+00  5.574000000000E+00  1.248430000000E+02  4.238000000000E-01
 -6.060000000000E+00  6.291000000000E+00  1.254700000000E+02  4.238000000000E-01
  6.080000000000E+00 -5.040000000000E+00  1.305610000000E+02 -8.476000000000E-01
  5.970000000000E+00 -5.843000000000E+00  1.311460000000E+02  4.238000000000E-01
  6.720000000000E+00 -5.250000000000E+00  1.298250000000E+02  4.238000000000E-01
 -4.090000000000E+00  5.840000000000E+00  1.383490000000E+02 -8.476000000000E-01
 -3.140000000000E+00  5.921000000000E+00  1.380550000000E+02  4.238000000000E-01
 -4.590000000000E+00  5.263000000000E+00  1.377040000000E+02  4.238000000000E-01
 -4.560000000000E+00 -4.380000000000E+00  1.046900000000E+02 -8.476000000000E-01
 -5.300000000000E+00 -3.809000000000E+00  1.043190000000E+02  4.238000000000E-01
 -4.460000000000E+00 -5.201000000000E+00  1.041290000000E+02  4.238000000000E-01
 -2.000000000000E-01  7.900000000000E-01  1.231000000000E+02 -8.476000000000E-01
  4.800000000000E-01  1.650000000000E-01  1.234770000000E+02  4.238000000000E-01
 -4.900000000000E-01  4.690000000000E-01  1.221960000000E+02  4.238000000000E-01
 -2.960000000000E+00 -2.290000000000E+00  1.134400000000E+02 -8.476000000000E-01
 -2.890000000000E+00 -1.757000000000E+00  1.142820000000E+02  4.238000000000E-01
 -3.810000000000E+00 -2.038000000000E+00  1.129620000000E+02  4.238000000000E-01
 -4.930000000000E+00  8.600000000000E-01  1.218900000000E+02 -8.476000000000E-01
 -4.200000000000E+00  6.300000000000E-01  1.225320000000E+02  4.238000000000E-01
 -5.650000000000E+00  1.360000000000E+00  1.223710000000E+02  4.238000000000E-01
 -3.250000000000E+00 -4.000000000000E-01  1.105000000000E+02 -8.476000000000E-01
 -3.990000000000E+00 -5.700000000000E-01  1.111550000000E+02  4.238000000000E-01
 -3.530000000000E+00 -7.320000000000E-01  1.095970000000E+02  4.238000000000E-01
  5.500000000000E+00  1.730000000000E+00  1.457400000000E+02 -8.476000000000E-01
  5.310000000000E+00  7.590000000000E-01  1.455990000000E+02  4.238000000000E-01
  5.400000000000E+00  2.218000000000E+00  1.448730000000E+02  4.238000000000E-01
 -6.550000000000E+00  8.260000000000E+00  1.149100000000E+02 -8.476000000000E-01
 -7.400000000000E+00  7.894000000000E+00  1.145140000000E+02  4.238000000000E-01
 -6.780000000000E+00 -8.032000000000E+00  1.155780000000E+02  4.238000000000E-01
 -8.480000000000E+00 -6.919000000000E+00  1.266600000000E+02 -8.476000000000E-01
 -7.650000000000E+00 -7.036000000000E+00  1.261280000000E+02  4.238000000000E-01
  7.980000000000E+00 -7.763000000000E+00  1.266260000000E+02  4.238000000000E-01
  6.060000000000E+00 -5.960000000000E+00  1.093000000000E+02 -8.476000000000E-01
  6.030000000000E+00 -6.702000000000E+00  1.099700000000E+02  4.238000000000E-01
  6.910000000000E+00 -6.012000000000E+00  1.087800000000E+02  4.238000000000E-01
  4.360000000000E+00  7.810000000000E+00  1.297600000000E+02 -8.476000000000E-01
  3.890000000000E+00 -8.384000000000E+00  1.301170000000E+02  4.238000000000E-01
  3.730000000000E+00  7.039000000000E+00  1.297280000000E+02  4.238000000000E-01
  2.450000000000E+00 -5.240000000000E+00  1.221500000000E+02 -8.476000000000E-01
  2.190000000000E+00 -4.759000000000E+00  1.213150000000E+02  4.238000000000E-01
  1.670000000000E+00 -5.292000000000E+00  1.227700000000E+02  4.238000000000E-01
  1.440000000000E+00  7.620000000000E+00  1.231500000000E+02 -8.476000000000E-01
  8.900000000000E-01  7.775000000000E+00  1.223300000000E+02  4.238000000000E-01
  1.560000000000E+00  6.638000000000E+00  1.232860000000E+02  4.238000000000E-01
  1.000000000000E-01  3.770000000000E+00  1.183300000000E+02 -8.476000000000E-01
  6.900000000000E-01  3.243000000000E+00  1.189370000000E+02  4.238000000000E-01
  5.700000000000E-01  3.941000000000E+00  1.174660000000E+02  4.238000000000E-01
 -6.340000000000E+00  3.340000000000E+00  1.287700000000E+02 -8.476000000000E-01
 -7.210000000000E+00  2.988000000000E+00  1.291290000000E+02  4.238000000000E-01
 -6.330000000000E+00  3.230000000000E+00  1.277760000000E+02  4.238000000000E-01
  6.210000000000E+00  6.730000000000E+00  1.275400000000E+02 -8.476000000000E-01
  5.540000000000E+00  6.058000000000E+00  1.272080000000E+02  4.238000000000E-01
  5.840000000000E+00  7.190000000000E+00  1.283480000000E+02  4.238000000000E-01
 -2.930000000000E+00  2.130000000000E+00  1.468100000000E+02 -8.476000000000E-01
 -2.590000000000E+00  3.068000000000E+00  1.467400000000E+02  4.238000000000E-01
 -3.910000000000E+00  2.110000000000E+00  1.465790000000E+02  4.238000000000E-01
 -2.480000000000E+00  5.430000000000E+00  1.344600000000E+02 -8.476000000000E-01
 -1.620000000000E+00  5.788000000000E+00  1.341110000000E+02  4.238000000000E-01
 -3.150000000000E+00  6.170000000000E+00  1.345100000000E+02  4.238000000000E-01
  7.660000000000E+00  7.200000000000E-01  1.470800000000E+02 -8.476000000000E-01
  7.850000000000E+00  1.289000000000E+00  1.478780000000E+02  4.238000000000E-01
  6.800000000000E+00  1.022000000000E+00  1.466590000000E+02  4.238000000000E-01
  3.180000000000E+00  3.280000000000E+00  1.432600000000E+02 -8.476000000000E-01
  2.990000000000E+00  2.551000000000E+00  1.426010000000E+02  4.238000000000E-01
  4.160000000000E+00  3.432000000000E+00  1.433220000000E+02  4.238000000000E-01
  7.350000000000E+00 -4.610000000000E+00  1.386800000000E+02 -8.476000000000E-01
  6.950000000000E+00 -5.321000000000E+00  1.392590000000E+02  4.238000000000E-01
  7.750000000000E+00 -3.902000000000E+00  1.392570000000E+02  4.238000000000E-01
 -3.330000000000E+00  4.700000000000E-01  1.162700000000E+02 -8.476000000000E-01
 -2.630000000000E+00  2.910000000000E-01  1.155840000000E+02  4.238000000000E-01
 -3.270000000000E+00  1.422000000000E+00  1.165700000000E+02  4.238000000000E-01
  3.380000000000E+00 -6.880000000000E+00  1.304700000000E+02 -8.476000000000E-01
  3.020000000000E+00 -5.990000000000E+00  1.301900000000E+02  4.238000000000E-01
  2.820000000000E+00 -7.241000000000E+00  1.312220000000E+02  4.238000000000E-01
  7.800000000000E-01  3.070000000000E+00  1.218200000000E+02 -8.476000000000E-01
  1.300000000000E+00  2.709000000000E+00  1.210520000000E+02  4.238000000000E-01
  3.000000000000E-01  2.320000000000E+00  1.222780000000E+02  4.238000000000E-01
  3.340000000000E+00 -1.240000000000E+00  1.425410000000E+02 -8.476000000000E-01
  3.140000000000E+00 -2.810000000000E-01  1.423370000000E+02  4.238000000000E-01
  3.760000000000E+00 -1.670000000000E+00  1.417430000000E+02  4.238000000000E-01
  7.560000000000E+00 -9.000000000000E-01  1.441000000000E+02 -8.476000000000E-01
  8.020000000000E+00 -6.100000000000E-02  1.438110000000E+02  4.238000000000E-01
  8.240000000000E+00 -1.580000000000E+00  1.443700000000E+02  4.238000000000E-01
  5.180000000000E+00 -2.860000000000E+00  1.010200000000E+02 -8.476000000000E-01
  5.590000000000E+00 -2.978000000000E+00  1.019230000000E+02  4.238000000000E-01
  5.810000000000E+00 -3.187000000000E+00  1.003180000000E+02  4.238000000000E-01
 -4.660000000000E+00 -8.900000000000E-01  1.197200000000E+02 -8.476000000000E-01
 -5.150000000000E+00 -1.281000000000E+00  1.205000000000E+02  4.238000000000E-01
 -4.790000000000E+00  1.020000000000E-01  1.197090000000E+02  4.238000000000E-01
  8.030000000000E+00 -1.620000000000E+00  1.094700000000E+02 -8.476000000000E-01
  7.240000000000E+00 -2.224000000000E+00  1.095940000000E+02  4.238000000000E-01
  8.280000000000E+00 -1.222000000000E+00  1.103500000000E+02  4.238000000000E-01
  4.990000000000E+00 -5.210000000000E+00  1.419200000000E+02 -8.476000000000E-01
  4.130000000000E+00 -5.538000000000E+00  1.423210000000E+02  4.238000000000E-01
  4.850000000000E+00 -4.285000000000E+00  1.415630000000E+02  4.238000000000E-01
  2.340000000000E+00 -8.000000000000E-01  1.387700000000E+02 -8.476000000000E-01
  3.080000000000E+00 -1.187000000000E+00  1.382310000000E+02  4.238000000000E-01
  1.960000000000E+00 -1.506000000000E+00  1.393680000000E+02  4.238000000000E-01
  4.550000000000E+00  1.070000000000E+00  1.062400000000E+02 -8.476000000000E-01
  5.400000000000E+00  1.589000000000E+00  1.061040000000E+02  4.238000000000E-01
  4.600000000000E+00  5.820000000000E-01  1.071110000000E+02  4.238000000000E-01
 -7.210000000000E+00 -3.060000000000E+00  1.233100000000E+02 -8.476000000000E-01
 -8.060000000000E+00 -3.589000000000E+00  1.231970000000E+02  4.238000000000E-01
 -7.120000000000E+00 -2.420000000000E+00  1.225480000000E+02  4.238000000000E-01
  5.710000000000E+00  5.020000000000E+00  1.067200000000E+02 -8.476000000000E-01
  6.470000000000E+00  5.351000000000E+00  1.072690000000E+02  4.238000000000E-01
  5.870000000000E+00  4.072000000000E+00  1.064500000000E+02  4.238000000000E-01
 -5.650000000000E+00 -7.670000000000E+00  1.075500000000E+02 -8.476000000000E-01
 -5.710000000000E+00 -6.678000000000E+00  1.076600000000E+02  4.238000000000E-01
 -4.730000000000E+00 -7.981000000000E+00  1.077590000000E+02  4.238000000000E-01
  6.700000000000E-01 -5.060000000000E+00  1.037600000000E+02 -8.476000000000E-01
  2.700000000000E-01 -4.501000000000E+00  1.044870000000E+02  4.238000000000E-01
  1.600000000000E-01 -4.909000000000E+00  1.029090000000E+02  4.238000000000E-01
 -3.980000000000E+00  4.130000000000E+00  1.326900000000E+02 -8.476000000000E-01
 -3.400000000000E+00  4.572000000000E+00  1.333720000000E+02  4.238000000000E-01
 -4.230000000000E+00  3.215000000000E+00  1.330080000000E+02  4.238000000000E-01
  4.530000000000E+00 -2.460000000000E+00  1.379300000000E+02 -8.476000000000E-01
  4.580000000000E+00 -3.413000000000E+00  1.376310000000E+02  4.238000000000E-01
  4.700000000000E+00 -1.857000000000E+00  1.371500000000E+02  4.238000000000E-01
  3.000000000000E-01  1.271000000000E+00  1.300100000000E+02 -8.476000000000E-01
  9.500000000000E-01  1.177000000000E+00  1.292630000000E+02  4.238000000000E-01
 -1.200000000000E-01  2.173000000000E+00  1.299640000000E+02  4.238000000000E-01
  2.150000000000E+00  1.990000000000E+00  1.196900000000E+02 -8.476000000000E-01
  2.990000000000E+00  1.938000000000E+00  1.202370000000E+02  4.238000000000E-01
  2.360000000000E+00  1.740000000000E+00  1.187440000000E+02  4.238000000000E-01
  9.900000000000E-01 -7.030000000000E+00  1.395700000000E+02 -8.476000000000E-01
  1.540000000000E+00 -7.398000000000E+00  1.403150000000E+02  4.238000000000E-01
  2.600000000000E-01 -6.450000000000E+00  1.399490000000E+02  4.238000000000E-01
 -5.980000000000E+00  6.680000000000E+00  1.177100000000E+02 -8.476000000000E-01
 -6.700000000000E+00  6.141000000000E+00  1.172580000000E+02  4.238000000000E-01
 -5.700000000000E+00  6.220000000000E+00  1.185520000000E+02  4.238000000000E-01
  3.370000000000E+00  3.580000000000E+00  1.286400000000E+02 -8.476000000000E-01
  3.540000000000E+00  4.212000000000E+00  1.293960000000E+02  4.238000000000E-01
  3.390000000000E+00  4.081000000000E+00  1.277750000000E+02  4.238000000000E-01
  1.390000000000E+00  5.410000000000E+00  1.102200000000E+02 -8.476000000000E-01
  1.940000000000E+00  4.594000000000E+00  1.103720000000E+02  4.238000000000E-01
  1.030000000000E+00  5.402000000000E+00  1.092850000000E+02  4.238000000000E-01
 -5.310000000000E+00 -5.180000000000E+00  1.110600000000E+02 -8.476000000000E-01
 -6.210000000000E+00 -4.739000000000E+00  1.111510000000E+02  4.238000000000E-01
 -5.330000000000E+00 -6.058000000000E+00  1.115390000000E+02  4.238000000000E-01
 -7.900000000000E+00 -1.070000000000E+00  1.209000000000E+02 -8.476000000000E-01
 -8.190000000000E+00 -1.919000000000E+00  1.204590000000E+02  4.238000000000E-01
 -7.970000000000E+00 -3.170000000000E-01  1.202460000000E+02  4.238000000000E-01
  4.020000000000E+00 -1.970000000000E+00  1.247510000000E+02 -8.476000000000E-01
  4.060000000000E+00 -1.376000000000E+00  1.255540000000E+02  4.238000000000E-01
  4.900000000000E+00 -1.961000000000E+00  1.242770000000E+02  4.238000000000E-01
 -1.110000000000E+00  5.910000000000E+00  1.382800000000E+02 -8.476000000000E-01
 -1.150000000000E+00  4.912000000000E+00  1.383200000000E+02  4.238000000000E-01
 -6.600000000000E-01  6.259000000000E+00  1.390980000000E+02  4.238000000000E-01
 -2.280000000000E+00  7.430000000000E+00  1.307100000000E+02 -8.476000000000E-01
 -2.000000000000E+00  7.379000000000E+00  1.297520000000E+02  4.238000000000E-01
 -1.610000000000E+00  6.959000000000E+00  1.312800000000E+02  4.238000000000E-01
  4.110000000000E+00 -4.750000000000E+00  1.275100000000E+02 -8.476000000000E-01
  4.000000000000E+00 -5.743000000000E+00  1.275610000000E+02  4.238000000000E-01
[...]
 TTTTTTTTTTTTTTTTTTTTTTTTTTTTTT EDFT        TELAPSE     1107.96 TCPU     1103.30
 INSULATING STATE
 TOP OF VALENCE BANDS -    BAND    115; K    1; EIG -2.5075077E-01 AU
 BOTTOM OF VIRTUAL BANDS - BAND    116; K    1; EIG  1.9597559E-01 AU
 DIRECT ENERGY BAND GAP:  12.1560 eV
 EIGENVECTORS IN FORTRAN UNIT  8
 EEEEEEEEEE SCF TERMINATION  DATE 22 04 2023 TIME 10:45:09.2

     *********************************************************************
     * ***************************************************************** *
     * *        COUPLED-PERTURBED KOHN-SHAM CALCULATION (CPKS)         * *
     * *        REFERENCES TO BE QUOTED WHEN USING THIS MODULE:        * *
     * *        (1) M. Ferrero, M. Rerat, R. Orlando, R.Dovesi,        * *
     * *            J. Comput. Chem. 29 (2008), 1450;                  * *
     * *            J. Chem. Phys. 128 (2008), 014110.                 * *
     * *        (2) M. Ferrero, M. Rerat, B. Kirtman, R. Dovesi,       * *
     * *            J. Chem. Phys. 129 (2008), 244110.                 * *
     * ***************************************************************** *
     *********************************************************************

 INFORMATION **** CP_DRIVER **** CONVERGENCE ON ALPHA: 10**          -3
 INFORMATION **** CP_DRIVER **** MAX NUMBER OF CPHF/CPKS CYCLES         100
 INFORMATION **** CP_DRIVER **** CPHF/CPKS DAMPING PERCENTAGE:           0
 STATIC FIELD (OR H*NU < 1E-15 HA)

 *******************************************************************************

 ELECTRIC FIELD APPLIED ALONG CARTESIAN DIRECTION X

 *******************************************************************************
 NEW GRID IN RECIPROCAL SPACE
 *******************************************************************************
 POINTS IN THE IBZ                  20 SHRINKING FACTORS               6  6  1
 *******************************************************************************
 *** K POINTS COORDINATES (OBLIQUE COORDINATES IN UNITS OF SHRINK FAC. )
   1-R(  0  0  0)   2-C(  1  0  0)   3-C(  2  0  0)   4-R(  3  0  0)
   5-C(  0  1  0)   6-C(  1  1  0)   7-C(  2  1  0)   8-C(  3  1  0)
   9-C(  4  1  0)  10-C(  5  1  0)  11-C(  0  2  0)  12-C(  1  2  0)
  13-C(  2  2  0)  14-C(  3  2  0)  15-C(  4  2  0)  16-C(  5  2  0)
  17-R(  0  3  0)  18-C(  1  3  0)  19-C(  2  3  0)  20-R(  3  3  0)

 GCALCO - MAX INDICES DIRECT LATTICE VECTOR    83    83     0
 NO.OF VECTORS CREATED 6999 STARS  686 RMAX  1515.34946 BOHR
 TTTTTTTTTTTTTTTTTTTTTTTTTTTTTT gordsh1     TELAPSE     1136.15 TCPU     1131.11

 MATRIX SIZE: P(G) 1761796, F(G)  349837, P(G) IRR  883569, F(G) IRR  350412
 MAX G-VECTOR INDEX FOR 1- AND 2-ELECTRON INTEGRALS  21

 TTTTTTTTTTTTTTTTTTTTTTTTTTTTTT INPUT       TELAPSE     1366.24 TCPU     1360.60
 TTTTTTTTTTTTTTTTTTTTTTTTTTTTTT SYMM        TELAPSE     1366.24 TCPU     1360.60

 ***** NEW REFERENCE GEOMETRY *****
 TTTTTTTTTTTTTTTTTTTTTTTTTTTTTT INT_SCREEN  TELAPSE     1366.31 TCPU     1360.66

 DFT PARAMETERS

     ATOM       ELECTRONS   NET CHARGE   R(ANGSTROM)
   1   8  O       8.0000      0.0000     0.74000000
   2   1  H       1.0000      0.0000     1.11000000
  70 199  QC      0.0000      0.0000     0.00000529

 SIZE OF GRID=    2262368
 TTTTTTTTTTTTTTTTTTTTTTTTTTTTTT MAKE_GRID2  TELAPSE     1379.26 TCPU     1373.58
 BECKE WEIGHT FUNCTION
 RADSAFE =     2.00
 TOLERANCES - DENSITY:10**- 6; POTENTIAL:10**- 9; GRID WGT:10**-14

 RADIAL INTEGRATION  - INTERVALS (POINTS,UPPER LIMIT):            1( 75,  4.0*R)

 ANGULAR INTEGRATION - INTERVALS (ACCURACY LEVEL [N. POINTS] UPPER LIMIT):
  1(  4[  86]   0.2)  2(  8[ 194]   0.5)  3( 12[ 350]   0.9)  4( 16[ 974]   3.5)
  5( 12[ 350]9999.0)
 TTTTTTTTTTTTTTTTTTTTTTTTTTTTTT INT_CALC    TELAPSE     1380.54 TCPU     1374.85
 CYCLE   0   ALPHA  167.517555  EPSILON    1.000000  DELTA    1.6752E+02
 TTTTTTTTTTTTTTTTTTTTTTTTTTTTTT MOQGAD      TELAPSE     1515.76 TCPU     1509.68
 TTTTTTTTTTTTTTTTTTTTTTTTTTTTTT CP_MONMON   TELAPSE     1526.19 TCPU     1520.01
 DIIS TEST: 0.34342E+01 AT CPHF  CYCLE   1 - MIX    0 %
 CYCLE   1   ALPHA  186.761246  EPSILON    1.000000  DELTA    1.9244E+01
 TTTTTTTTTTTTTTTTTTTTTTTTTTTTTT MOQGAD      TELAPSE     1594.84 TCPU     1588.36
 TTTTTTTTTTTTTTTTTTTTTTTTTTTTTT CP_MONMON   TELAPSE     1605.14 TCPU     1598.63
 DIIS TEST: 0.10574E+01 AT CPHF  CYCLE   2 - DIIS ACTIVE - HISTORY:     2 CYCLES
 CYCLE   2   ALPHA  195.313114  EPSILON    1.000000  DELTA    8.5519E+00
 TTTTTTTTTTTTTTTTTTTTTTTTTTTTTT MOQGAD      TELAPSE     1673.74 TCPU     1666.99
 TTTTTTTTTTTTTTTTTTTTTTTTTTTTTT CP_MONMON   TELAPSE     1684.12 TCPU     1677.34
 DIIS TEST: 0.27627E+00 AT CPHF  CYCLE   3 - DIIS ACTIVE - HISTORY:     3 CYCLES
 CYCLE   3   ALPHA  200.507792  EPSILON    1.000000  DELTA    5.1947E+00
 TTTTTTTTTTTTTTTTTTTTTTTTTTTTTT MOQGAD      TELAPSE     1752.73 TCPU     1745.76
 TTTTTTTTTTTTTTTTTTTTTTTTTTTTTT CP_MONMON   TELAPSE     1763.06 TCPU     1756.05
 DIIS TEST: 0.59581E-02 AT CPHF  CYCLE   4 - DIIS ACTIVE - HISTORY:     4 CYCLES
 CYCLE   4   ALPHA  201.581303  EPSILON    1.000000  DELTA    1.0735E+00
 TTTTTTTTTTTTTTTTTTTTTTTTTTTTTT MOQGAD      TELAPSE     1831.82 TCPU     1824.58
 TTTTTTTTTTTTTTTTTTTTTTTTTTTTTT CP_MONMON   TELAPSE     1842.14 TCPU     1834.88
 DIIS TEST: 0.83934E-03 AT CPHF  CYCLE   5 - DIIS ACTIVE - HISTORY:     5 CYCLES
 CYCLE   5   ALPHA  201.662030  EPSILON    1.000000  DELTA    8.0727E-02
 TTTTTTTTTTTTTTTTTTTTTTTTTTTTTT MOQGAD      TELAPSE     1911.00 TCPU     1903.54
 TTTTTTTTTTTTTTTTTTTTTTTTTTTTTT CP_MONMON   TELAPSE     1921.39 TCPU     1913.90
 DIIS TEST: 0.21497E-03 AT CPHF  CYCLE   6 - DIIS ACTIVE - HISTORY:     6 CYCLES
 CYCLE   6   ALPHA  201.695162  EPSILON    1.000000  DELTA    3.3132E-02
 TTTTTTTTTTTTTTTTTTTTTTTTTTTTTT MOQGAD      TELAPSE     1990.02 TCPU     1982.32
 TTTTTTTTTTTTTTTTTTTTTTTTTTTTTT CP_MONMON   TELAPSE     2000.42 TCPU     1992.70
 DIIS TEST: 0.29042E-05 AT CPHF  CYCLE   7 - DIIS ACTIVE - HISTORY:     7 CYCLES
 CYCLE   7   ALPHA  201.698913  EPSILON    1.000000  DELTA    3.7517E-03
 TTTTTTTTTTTTTTTTTTTTTTTTTTTTTT MOQGAD      TELAPSE     2069.29 TCPU     2061.37
 TTTTTTTTTTTTTTTTTTTTTTTTTTTTTT CP_MONMON   TELAPSE     2079.62 TCPU     2071.67
 DIIS TEST: 0.41373E-06 AT CPHF  CYCLE   8 - DIIS ACTIVE - HISTORY:     8 CYCLES
 CYCLE   8   ALPHA  201.698826  EPSILON    1.000000  DELTA   -8.7838E-05
 TTTTTTTTTTTTTTTTTTTTTTTTTTTTTT CP_SC       TELAPSE     2089.24 TCPU     2080.39

 *******************************************************************************

 ELECTRIC FIELD APPLIED ALONG CARTESIAN DIRECTION Y

 *******************************************************************************
 NEW GRID IN RECIPROCAL SPACE
 *******************************************************************************
 POINTS IN THE IBZ                  20 SHRINKING FACTORS               6  6  1
 *******************************************************************************
 *** K POINTS COORDINATES (OBLIQUE COORDINATES IN UNITS OF SHRINK FAC. )
   1-R(  0  0  0)   2-C(  1  0  0)   3-C(  2  0  0)   4-R(  3  0  0)
   5-C(  0  1  0)   6-C(  1  1  0)   7-C(  2  1  0)   8-C(  3  1  0)
   9-C(  4  1  0)  10-C(  5  1  0)  11-C(  0  2  0)  12-C(  1  2  0)
  13-C(  2  2  0)  14-C(  3  2  0)  15-C(  4  2  0)  16-C(  5  2  0)
  17-R(  0  3  0)  18-C(  1  3  0)  19-C(  2  3  0)  20-R(  3  3  0)

 GCALCO - MAX INDICES DIRECT LATTICE VECTOR    83    83     0
 NO.OF VECTORS CREATED 6999 STARS  686 RMAX  1515.34946 BOHR
 TTTTTTTTTTTTTTTTTTTTTTTTTTTTTT gordsh1     TELAPSE     2159.69 TCPU     2150.62

 MATRIX SIZE: P(G) 1761796, F(G)  349837, P(G) IRR  883569, F(G) IRR  350412
 MAX G-VECTOR INDEX FOR 1- AND 2-ELECTRON INTEGRALS  21

 TTTTTTTTTTTTTTTTTTTTTTTTTTTTTT INPUT       TELAPSE     2180.06 TCPU     2170.93
 TTTTTTTTTTTTTTTTTTTTTTTTTTTTTT SYMM        TELAPSE     2180.06 TCPU     2170.93

 ***** NEW REFERENCE GEOMETRY *****
 TTTTTTTTTTTTTTTTTTTTTTTTTTTTTT INT_SCREEN  TELAPSE     2180.12 TCPU     2170.99

 DFT PARAMETERS

     ATOM       ELECTRONS   NET CHARGE   R(ANGSTROM)
   1   8  O       8.0000      0.0000     0.74000000
   2   1  H       1.0000      0.0000     1.11000000
  70 199  QC      0.0000      0.0000     0.00000529

 SIZE OF GRID=    2262368
 TTTTTTTTTTTTTTTTTTTTTTTTTTTTTT MAKE_GRID2  TELAPSE     2193.18 TCPU     2184.02
 BECKE WEIGHT FUNCTION
 RADSAFE =     2.00
 TOLERANCES - DENSITY:10**- 6; POTENTIAL:10**- 9; GRID WGT:10**-14

 RADIAL INTEGRATION  - INTERVALS (POINTS,UPPER LIMIT):            1( 75,  4.0*R)

 ANGULAR INTEGRATION - INTERVALS (ACCURACY LEVEL [N. POINTS] UPPER LIMIT):
  1(  4[  86]   0.2)  2(  8[ 194]   0.5)  3( 12[ 350]   0.9)  4( 16[ 974]   3.5)
  5( 12[ 350]9999.0)
 TTTTTTTTTTTTTTTTTTTTTTTTTTTTTT INT_CALC    TELAPSE     2194.44 TCPU     2185.28
 CYCLE   0   ALPHA  160.088875  EPSILON    1.000000  DELTA    1.6009E+02
 TTTTTTTTTTTTTTTTTTTTTTTTTTTTTT MOQGAD      TELAPSE     2329.80 TCPU     2320.24
 TTTTTTTTTTTTTTTTTTTTTTTTTTTTTT CP_MONMON   TELAPSE     2340.21 TCPU     2330.52
 DIIS TEST: 0.41525E+01 AT CPHF  CYCLE   1 - MIX    0 %
 CYCLE   1   ALPHA  175.101438  EPSILON    1.000000  DELTA    1.5013E+01
 TTTTTTTTTTTTTTTTTTTTTTTTTTTTTT MOQGAD      TELAPSE     2408.81 TCPU     2398.90
 TTTTTTTTTTTTTTTTTTTTTTTTTTTTTT CP_MONMON   TELAPSE     2419.11 TCPU     2409.17
 DIIS TEST: 0.20533E+01 AT CPHF  CYCLE   2 - DIIS ACTIVE - HISTORY:     2 CYCLES
 CYCLE   2   ALPHA  183.290251  EPSILON    1.000000  DELTA    8.1888E+00
 TTTTTTTTTTTTTTTTTTTTTTTTTTTTTT MOQGAD      TELAPSE     2487.83 TCPU     2477.70
 TTTTTTTTTTTTTTTTTTTTTTTTTTTTTT CP_MONMON   TELAPSE     2498.15 TCPU     2488.00
 DIIS TEST: 0.21104E+00 AT CPHF  CYCLE   3 - DIIS ACTIVE - HISTORY:     3 CYCLES
 CYCLE   3   ALPHA  189.093033  EPSILON    1.000000  DELTA    5.8028E+00
 TTTTTTTTTTTTTTTTTTTTTTTTTTTTTT MOQGAD      TELAPSE     2566.83 TCPU     2556.48
 TTTTTTTTTTTTTTTTTTTTTTTTTTTTTT CP_MONMON   TELAPSE     2577.15 TCPU     2566.77
 DIIS TEST: 0.60331E-02 AT CPHF  CYCLE   4 - DIIS ACTIVE - HISTORY:     4 CYCLES
 CYCLE   4   ALPHA  190.141179  EPSILON    1.000000  DELTA    1.0481E+00
 TTTTTTTTTTTTTTTTTTTTTTTTTTTTTT MOQGAD      TELAPSE     2646.08 TCPU     2635.38
 TTTTTTTTTTTTTTTTTTTTTTTTTTTTTT CP_MONMON   TELAPSE     2656.41 TCPU     2645.68
 DIIS TEST: 0.16854E-02 AT CPHF  CYCLE   5 - DIIS ACTIVE - HISTORY:     5 CYCLES
 CYCLE   5   ALPHA  190.233974  EPSILON    1.000000  DELTA    9.2795E-02
 TTTTTTTTTTTTTTTTTTTTTTTTTTTTTT MOQGAD      TELAPSE     2725.04 TCPU     2714.11
 TTTTTTTTTTTTTTTTTTTTTTTTTTTTTT CP_MONMON   TELAPSE     2735.42 TCPU     2724.47
 DIIS TEST: 0.14919E-03 AT CPHF  CYCLE   6 - DIIS ACTIVE - HISTORY:     6 CYCLES
 CYCLE   6   ALPHA  190.272366  EPSILON    1.000000  DELTA    3.8392E-02
 TTTTTTTTTTTTTTTTTTTTTTTTTTTTTT MOQGAD      TELAPSE     2813.94 TCPU     2802.76
 TTTTTTTTTTTTTTTTTTTTTTTTTTTTTT CP_MONMON   TELAPSE     2824.69 TCPU     2813.48
 DIIS TEST: 0.29468E-05 AT CPHF  CYCLE   7 - DIIS ACTIVE - HISTORY:     7 CYCLES
 CYCLE   7   ALPHA  190.275347  EPSILON    1.000000  DELTA    2.9811E-03
 TTTTTTTTTTTTTTTTTTTTTTTTTTTTTT MOQGAD      TELAPSE     2897.74 TCPU     2886.32
 TTTTTTTTTTTTTTTTTTTTTTTTTTTTTT CP_MONMON   TELAPSE     2908.48 TCPU     2897.03
 DIIS TEST: 0.97232E-06 AT CPHF  CYCLE   8 - DIIS ACTIVE - HISTORY:     8 CYCLES
 CYCLE   8   ALPHA  190.275532  EPSILON    1.000000  DELTA    1.8535E-04
 TTTTTTTTTTTTTTTTTTTTTTTTTTTTTT CP_SC       TELAPSE     2918.01 TCPU     2905.94

 *******************************************************************************

 ELECTRIC FIELD APPLIED ALONG CARTESIAN DIRECTION Z

 *******************************************************************************
 NEW GRID IN RECIPROCAL SPACE
 *******************************************************************************
 POINTS IN THE IBZ                  20 SHRINKING FACTORS               6  6  1
 *******************************************************************************
 *** K POINTS COORDINATES (OBLIQUE COORDINATES IN UNITS OF SHRINK FAC. )
   1-R(  0  0  0)   2-C(  1  0  0)   3-C(  2  0  0)   4-R(  3  0  0)
   5-C(  0  1  0)   6-C(  1  1  0)   7-C(  2  1  0)   8-C(  3  1  0)
   9-C(  4  1  0)  10-C(  5  1  0)  11-C(  0  2  0)  12-C(  1  2  0)
  13-C(  2  2  0)  14-C(  3  2  0)  15-C(  4  2  0)  16-C(  5  2  0)
  17-R(  0  3  0)  18-C(  1  3  0)  19-C(  2  3  0)  20-R(  3  3  0)

 GCALCO - MAX INDICES DIRECT LATTICE VECTOR    83    83     0
 NO.OF VECTORS CREATED 6999 STARS  686 RMAX  1515.34946 BOHR
 TTTTTTTTTTTTTTTTTTTTTTTTTTTTTT gordsh1     TELAPSE     2992.03 TCPU     2979.59

 MATRIX SIZE: P(G) 1761796, F(G)  349837, P(G) IRR  883569, F(G) IRR  350412
 MAX G-VECTOR INDEX FOR 1- AND 2-ELECTRON INTEGRALS  21

 TTTTTTTTTTTTTTTTTTTTTTTTTTTTTT INPUT       TELAPSE     3013.78 TCPU     3001.28
 TTTTTTTTTTTTTTTTTTTTTTTTTTTTTT SYMM        TELAPSE     3013.78 TCPU     3001.28

 ***** NEW REFERENCE GEOMETRY *****
 TTTTTTTTTTTTTTTTTTTTTTTTTTTTTT INT_SCREEN  TELAPSE     3013.85 TCPU     3001.35

 DFT PARAMETERS

     ATOM       ELECTRONS   NET CHARGE   R(ANGSTROM)
   1   8  O       8.0000      0.0000     0.74000000
   2   1  H       1.0000      0.0000     1.11000000
  70 199  QC      0.0000      0.0000     0.00000529

 SIZE OF GRID=    2262368
 TTTTTTTTTTTTTTTTTTTTTTTTTTTTTT MAKE_GRID2  TELAPSE     3027.33 TCPU     3014.80
 BECKE WEIGHT FUNCTION
 RADSAFE =     2.00
 TOLERANCES - DENSITY:10**- 6; POTENTIAL:10**- 9; GRID WGT:10**-14

 RADIAL INTEGRATION  - INTERVALS (POINTS,UPPER LIMIT):            1( 75,  4.0*R)

 ANGULAR INTEGRATION - INTERVALS (ACCURACY LEVEL [N. POINTS] UPPER LIMIT):
  1(  4[  86]   0.2)  2(  8[ 194]   0.5)  3( 12[ 350]   0.9)  4( 16[ 974]   3.5)
  5( 12[ 350]9999.0)
 TTTTTTTTTTTTTTTTTTTTTTTTTTTTTT INT_CALC    TELAPSE     3028.67 TCPU     3016.13
 CYCLE   0   ALPHA  145.631044  EPSILON    1.000000  DELTA    1.4563E+02
 TTTTTTTTTTTTTTTTTTTTTTTTTTTTTT MOQGAD      TELAPSE     3171.41 TCPU     3158.48
 TTTTTTTTTTTTTTTTTTTTTTTTTTTTTT CP_MONMON   TELAPSE     3182.45 TCPU     3169.44
 DIIS TEST: 0.55542E+01 AT CPHF  CYCLE   1 - MIX    0 %
 CYCLE   1   ALPHA  124.214434  EPSILON    1.000000  DELTA   -2.1417E+01
 TTTTTTTTTTTTTTTTTTTTTTTTTTTTTT MOQGAD      TELAPSE     3255.47 TCPU     3242.19
 TTTTTTTTTTTTTTTTTTTTTTTTTTTTTT CP_MONMON   TELAPSE     3266.28 TCPU     3252.96
 DIIS TEST: 0.34007E+01 AT CPHF  CYCLE   2 - DIIS ACTIVE - HISTORY:     2 CYCLES
 CYCLE   2   ALPHA  132.423550  EPSILON    1.000000  DELTA    8.2091E+00
 TTTTTTTTTTTTTTTTTTTTTTTTTTTTTT MOQGAD      TELAPSE     3339.25 TCPU     3325.68
 TTTTTTTTTTTTTTTTTTTTTTTTTTTTTT CP_MONMON   TELAPSE     3349.99 TCPU     3336.40
 DIIS TEST: 0.14232E+00 AT CPHF  CYCLE   3 - DIIS ACTIVE - HISTORY:     3 CYCLES
 CYCLE   3   ALPHA  134.215726  EPSILON    1.000000  DELTA    1.7922E+00
 TTTTTTTTTTTTTTTTTTTTTTTTTTTTTT MOQGAD      TELAPSE     3423.14 TCPU     3409.32
 TTTTTTTTTTTTTTTTTTTTTTTTTTTTTT CP_MONMON   TELAPSE     3433.91 TCPU     3420.06
 DIIS TEST: 0.38535E-02 AT CPHF  CYCLE   4 - DIIS ACTIVE - HISTORY:     4 CYCLES
 CYCLE   4   ALPHA  134.682508  EPSILON    1.000000  DELTA    4.6678E-01
 TTTTTTTTTTTTTTTTTTTTTTTTTTTTTT MOQGAD      TELAPSE     3507.35 TCPU     3493.28
 TTTTTTTTTTTTTTTTTTTTTTTTTTTTTT CP_MONMON   TELAPSE     3518.19 TCPU     3504.08
 DIIS TEST: 0.76450E-03 AT CPHF  CYCLE   5 - DIIS ACTIVE - HISTORY:     5 CYCLES
 CYCLE   5   ALPHA  134.720370  EPSILON    1.000000  DELTA    3.7863E-02
 TTTTTTTTTTTTTTTTTTTTTTTTTTTTTT MOQGAD      TELAPSE     3591.79 TCPU     3577.48
 TTTTTTTTTTTTTTTTTTTTTTTTTTTTTT CP_MONMON   TELAPSE     3602.55 TCPU     3588.20
 DIIS TEST: 0.73352E-04 AT CPHF  CYCLE   6 - DIIS ACTIVE - HISTORY:     6 CYCLES
 CYCLE   6   ALPHA  134.738489  EPSILON    1.000000  DELTA    1.8118E-02
 TTTTTTTTTTTTTTTTTTTTTTTTTTTTTT MOQGAD      TELAPSE     3675.89 TCPU     3661.34
 TTTTTTTTTTTTTTTTTTTTTTTTTTTTTT CP_MONMON   TELAPSE     3686.70 TCPU     3672.11
 DIIS TEST: 0.15685E-05 AT CPHF  CYCLE   7 - DIIS ACTIVE - HISTORY:     7 CYCLES
 CYCLE   7   ALPHA  134.739982  EPSILON    1.000000  DELTA    1.4932E-03
 TTTTTTTTTTTTTTTTTTTTTTTTTTTTTT MOQGAD      TELAPSE     3760.24 TCPU     3745.42
 TTTTTTTTTTTTTTTTTTTTTTTTTTTTTT CP_MONMON   TELAPSE     3771.07 TCPU     3756.23
 DIIS TEST: 0.42024E-06 AT CPHF  CYCLE   8 - DIIS ACTIVE - HISTORY:     8 CYCLES
 CYCLE   8   ALPHA  134.740120  EPSILON    1.000000  DELTA    1.3798E-04
 TTTTTTTTTTTTTTTTTTTTTTTTTTTTTT CP_SC       TELAPSE     3781.00 TCPU     3765.61

 *******************************************************************************

 POLARIZABILITY TENSOR  ALPHA (INDEPENDENT COMPONENTS)

  COMPONENT    ALPHA(REAL, IMAGINARY)
  0.000   XX     201.6988       0.0000
  0.000   YY     190.2755       0.0000
  0.000   ZZ     134.7401       0.0000

 ALPHA IN BOHR**3
 *******************************************************************************


 SIZE OF GRID=    2262368
 TTTTTTTTTTTTTTTTTTTTTTTTTTTTTT MAKE_GRID2  TELAPSE     3916.45 TCPU     3900.52
 BECKE WEIGHT FUNCTION
 RADSAFE =     2.00
 TOLERANCES - DENSITY:10**- 6; POTENTIAL:10**- 9; GRID WGT:10**-14

 RADIAL INTEGRATION  - INTERVALS (POINTS,UPPER LIMIT):            1( 75,  4.0*R)

 ANGULAR INTEGRATION - INTERVALS (ACCURACY LEVEL [N. POINTS] UPPER LIMIT):
  1(  4[  86]   0.2)  2(  8[ 194]   0.5)  3( 12[ 350]   0.9)  4( 16[ 974]   3.5)
  5( 12[ 350]9999.0)
 *******************************************************************************

 FIRST HYPERPOLARIZABILITY TENSOR (BETA, INDEPENDENT COMPONENTS)

  COMPONENT      BETA
 *******************************************************************************

     XXX    5.1086E+01  (  5.1086E+01)
     XXY    2.6391E+01  (  2.6391E+01)
     XXZ   -5.4504E+00  ( -5.4504E+00)
     XYY   -2.8071E+00  ( -2.8071E+00)
     XYZ   -1.2081E+01  ( -1.2081E+01)
     XZZ    1.4917E+00  (  1.4917E+00)
     YYY    5.4419E-01  (  5.4419E-01)
     YYZ    1.6644E+01  (  1.6644E+01)
     YZZ   -2.6545E+01  ( -2.6545E+01)
     ZZZ   -1.4504E+01  ( -1.4504E+01)
 *******************************************************************************

 BETA IN A.U.
 [BETA]=M**(-1/2)*L**(7/2)*T             (L=LENGTH, M=MASS, T=TIME)


 *******************************************************************************


 GCALCO - MAX INDICES DIRECT LATTICE VECTOR    83    83     0
 NO.OF VECTORS CREATED 6999 STARS  686 RMAX  1515.34946 BOHR

 CAPPA:IS1  6;IS2  6;IS3  1; K PTS MONK NET  20; SYMMOPS:K SPACE   2;G SPACE   1

 TTTTTTTTTTTTTTTTTTTTTTTTTTTTTT END         TELAPSE     3917.38 TCPU     3901.31
 EEEEEEEEEE TERMINATION  DATE 22 04 2023 TIME 11:31:42.6
NODE    0 CPU TIME =      3901.310
NODE    1 CPU TIME =      3903.947
NODE    2 CPU TIME =      3902.902
NODE    3 CPU TIME =      3905.186
NODE    4 CPU TIME =      3897.428
NODE    5 CPU TIME =      3890.358
NODE    6 CPU TIME =      3891.724
NODE    7 CPU TIME =      3885.681
NODE    8 CPU TIME =      3892.067
NODE    9 CPU TIME =      3892.690
NODE   10 CPU TIME =      3894.099
NODE   11 CPU TIME =      3892.557
NODE   12 CPU TIME =      3891.834
NODE   13 CPU TIME =      3892.970
NODE   14 CPU TIME =      3894.878
NODE   15 CPU TIME =      3891.863
NODE   16 CPU TIME =      3893.727
NODE   17 CPU TIME =      3893.245
NODE   18 CPU TIME =      3894.487
NODE   19 CPU TIME =      3895.835
NODE   20 CPU TIME =      3897.834
NODE   21 CPU TIME =      3891.782
NODE   22 CPU TIME =      3895.281
NODE   23 CPU TIME =      3875.869
    TOTAL CPU TIME =     93459.555
pe files deleted
TMPDIR copied back to SUBMIT_DIR
/var/spool/slurmd/job71467204/slurm_script: line 37: unexpected EOF while looking for matching `"'
/var/spool/slurmd/job71467204/slurm_script: line 38: syntax error: unexpected end of file
