

     ************************************************************************
     *************** Dalton - An Electronic Structure Program ***************
     ************************************************************************

    This is output from DALTON release Dalton2016.1 (2016)
         ( Web site: http://daltonprogram.org )

   ----------------------------------------------------------------------------

    NOTE:
     
    Dalton is an experimental code for the evaluation of molecular
    properties using (MC)SCF, DFT, CI, and CC wave functions.
    The authors accept no responsibility for the performance of
    the code or for the correctness of the results.
     
    The code (in whole or part) is provided under a licence and
    is not to be reproduced for further distribution without
    the written permission of the authors or their representatives.
     
    See the home page "http://daltonprogram.org" for further information.
     
    If results obtained with this code are published,
    the appropriate citations would be both of:
     
       K. Aidas, C. Angeli, K. L. Bak, V. Bakken, R. Bast,
       L. Boman, O. Christiansen, R. Cimiraglia, S. Coriani,
       P. Dahle, E. K. Dalskov, U. Ekstroem,
       T. Enevoldsen, J. J. Eriksen, P. Ettenhuber, B. Fernandez,
       L. Ferrighi, H. Fliegl, L. Frediani, K. Hald, A. Halkier,
       C. Haettig, H. Heiberg, T. Helgaker, A. C. Hennum,
       H. Hettema, E. Hjertenaes, S. Hoest, I.-M. Hoeyvik,
       M. F. Iozzi, B. Jansik, H. J. Aa. Jensen, D. Jonsson,
       P. Joergensen, J. Kauczor, S. Kirpekar,
       T. Kjaergaard, W. Klopper, S. Knecht, R. Kobayashi, H. Koch,
       J. Kongsted, A. Krapp, K. Kristensen, A. Ligabue,
       O. B. Lutnaes, J. I. Melo, K. V. Mikkelsen, R. H. Myhre,
       C. Neiss, C. B. Nielsen, P. Norman, J. Olsen,
       J. M. H. Olsen, A. Osted, M. J. Packer, F. Pawlowski,
       T. B. Pedersen, P. F. Provasi, S. Reine, Z. Rinkevicius,
       T. A. Ruden, K. Ruud, V. Rybkin, P. Salek, C. C. M. Samson,
       A. Sanchez de Meras, T. Saue, S. P. A. Sauer,
       B. Schimmelpfennig, K. Sneskov, A. H. Steindal,
       K. O. Sylvester-Hvid, P. R. Taylor, A. M. Teale,
       E. I. Tellgren, D. P. Tew, A. J. Thorvaldsen, L. Thoegersen,
       O. Vahtras, M. A. Watson, D. J. D. Wilson, M. Ziolkowski
       and H. Agren,
       "The Dalton quantum chemistry program system",
       WIREs Comput. Mol. Sci. 2014, 4:269–284 (doi: 10.1002/wcms.1172)
     
    and
     
       Dalton, a Molecular Electronic Structure Program,
       Release Dalton2016.1 (2016), see http://daltonprogram.org
   ----------------------------------------------------------------------------

    Authors in alphabetical order (major contribution(s) in parenthesis):

  Kestutis Aidas,           Vilnius University,           Lithuania   (QM/MM)
  Celestino Angeli,         University of Ferrara,        Italy       (NEVPT2)
  Keld L. Bak,              UNI-C,                        Denmark     (AOSOPPA, non-adiabatic coupling, magnetic properties)
  Vebjoern Bakken,          University of Oslo,           Norway      (DALTON; geometry optimizer, symmetry detection)
  Radovan Bast,             UiT The Arctic U. of Norway,  Norway      (DALTON installation and execution frameworks)
  Pablo Baudin,             University of Valencia,       Spain       (Cholesky excitation energies)
  Linus Boman,              NTNU,                         Norway      (Cholesky decomposition and subsystems)
  Ove Christiansen,         Aarhus University,            Denmark     (CC module)
  Renzo Cimiraglia,         University of Ferrara,        Italy       (NEVPT2)
  Sonia Coriani,            University of Trieste,        Italy       (CC module, MCD in RESPONS)
  Janusz Cukras,            University of Trieste,        Italy       (MChD in RESPONS)
  Paal Dahle,               University of Oslo,           Norway      (Parallelization)
  Erik K. Dalskov,          UNI-C,                        Denmark     (SOPPA)
  Thomas Enevoldsen,        Univ. of Southern Denmark,    Denmark     (SOPPA)
  Janus J. Eriksen,         Aarhus University,            Denmark     (Polarizable embedding model, TDA)
  Rasmus Faber,             University of Copenhagen,     Denmark     (Vib.avg. NMR with SOPPA, parallel AO-SOPPA)
  Berta Fernandez,          U. of Santiago de Compostela, Spain       (doublet spin, ESR in RESPONS)
  Lara Ferrighi,            Aarhus University,            Denmark     (PCM Cubic response)
  Heike Fliegl,             University of Oslo,           Norway      (CCSD(R12))
  Luca Frediani,            UiT The Arctic U. of Norway,  Norway      (PCM)
  Bin Gao,                  UiT The Arctic U. of Norway,  Norway      (Gen1Int library)
  Christof Haettig,         Ruhr-University Bochum,       Germany     (CC module)
  Kasper Hald,              Aarhus University,            Denmark     (CC module)
  Asger Halkier,            Aarhus University,            Denmark     (CC module)
  Frederik Beyer Hansen,    University of Copenhagen,     Denmark     (Parallel AO-SOPPA)
  Erik D. Hedegaard,        Univ. of Southern Denmark,    Denmark     (Polarizable embedding model, QM/MM)
  Hanne Heiberg,            University of Oslo,           Norway      (geometry analysis, selected one-electron integrals)
  Trygve Helgaker,          University of Oslo,           Norway      (DALTON; ABACUS, ERI, DFT modules, London, and much more)
  Alf Christian Hennum,     University of Oslo,           Norway      (Parity violation)
  Hinne Hettema,            University of Auckland,       New Zealand (quadratic response in RESPONS; SIRIUS supersymmetry)
  Eirik Hjertenaes,         NTNU,                         Norway      (Cholesky decomposition)
  Maria Francesca Iozzi,    University of Oslo,           Norway      (RPA)
  Brano Jansik              Technical Univ. of Ostrava    Czech Rep.  (DFT cubic response)
  Hans Joergen Aa. Jensen,  Univ. of Southern Denmark,    Denmark     (DALTON; SIRIUS, RESPONS, ABACUS modules, London, and much more)
  Dan Jonsson,              UiT The Arctic U. of Norway,  Norway      (cubic response in RESPONS module)
  Poul Joergensen,          Aarhus University,            Denmark     (RESPONS, ABACUS, and CC modules)
  Maciej Kaminski,          University of Warsaw,         Poland      (CPPh in RESPONS)
  Joanna Kauczor,           Linkoeping University,        Sweden      (Complex polarization propagator (CPP) module)
  Sheela Kirpekar,          Univ. of Southern Denmark,    Denmark     (Mass-velocity & Darwin integrals)
  Wim Klopper,              KIT Karlsruhe,                Germany     (R12 code in CC, SIRIUS, and ABACUS modules)
  Stefan Knecht,            ETH Zurich,                   Switzerland (Parallel CI and MCSCF)
  Rika Kobayashi,           Australian National Univ.,    Australia   (DIIS in CC, London in MCSCF)
  Henrik Koch,              NTNU,                         Norway      (CC module, Cholesky decomposition)
  Jacob Kongsted,           Univ. of Southern Denmark,    Denmark     (Polarizable embedding model, QM/MM)
  Andrea Ligabue,           University of Modena,         Italy       (CTOCD, AOSOPPA)
  Nanna H. List             Univ. of Southern Denmark,    Denmark     (Polarizable embedding model)
  Ola B. Lutnaes,           University of Oslo,           Norway      (DFT Hessian)
  Juan I. Melo,             University of Buenos Aires,   Argentina   (LRESC, Relativistic Effects on NMR Shieldings)
  Kurt V. Mikkelsen,        University of Copenhagen,     Denmark     (MC-SCRF and QM/MM)
  Rolf H. Myhre,            NTNU,                         Norway      (Cholesky, subsystems and ECC2)
  Christian Neiss,          Univ. Erlangen-Nuernberg,     Germany     (CCSD(R12))
  Christian B. Nielsen,     University of Copenhagen,     Denmark     (QM/MM)
  Patrick Norman,           Linkoeping University,        Sweden      (Cubic response and complex frequency response in RESPONS)
  Jeppe Olsen,              Aarhus University,            Denmark     (SIRIUS CI/density modules)
  Jogvan Magnus H. Olsen,   Univ. of Southern Denmark,    Denmark     (Polarizable embedding model, QM/MM)
  Anders Osted,             Copenhagen University,        Denmark     (QM/MM)
  Martin J. Packer,         University of Sheffield,      UK          (SOPPA)
  Filip Pawlowski,          Kazimierz Wielki University,  Poland      (CC3)
  Morten N. Pedersen,       Univ. of Southern Denmark,    Denmark     (Polarizable embedding model)
  Thomas B. Pedersen,       University of Oslo,           Norway      (Cholesky decomposition)
  Patricio F. Provasi,      University of Northeastern,   Argentina   (Analysis of coupling constants in localized orbitals)
  Zilvinas Rinkevicius,     KTH Stockholm,                Sweden      (open-shell DFT, ESR)
  Elias Rudberg,            KTH Stockholm,                Sweden      (DFT grid and basis info)
  Torgeir A. Ruden,         University of Oslo,           Norway      (Numerical derivatives in ABACUS)
  Kenneth Ruud,             UiT The Arctic U. of Norway,  Norway      (DALTON; ABACUS magnetic properties and much more)
  Pawel Salek,              KTH Stockholm,                Sweden      (DALTON; DFT code)
  Claire C. M. Samson       University of Karlsruhe       Germany     (Boys localization, r12 integrals in ERI)
  Alfredo Sanchez de Meras, University of Valencia,       Spain       (CC module, Cholesky decomposition)
  Trond Saue,               Paul Sabatier University,     France      (direct Fock matrix construction)
  Stephan P. A. Sauer,      University of Copenhagen,     Denmark     (SOPPA(CCSD), SOPPA prop., AOSOPPA, vibrational g-factors)
  Bernd Schimmelpfennig,    Forschungszentrum Karlsruhe,  Germany     (AMFI module)
  Kristian Sneskov,         Aarhus University,            Denmark     (Polarizable embedding model, QM/MM)
  Arnfinn H. Steindal,      UiT The Arctic U. of Norway,  Norway      (parallel QM/MM, Polarizable embedding model)
  Casper Steinmann,         Univ. of Southern Denmark,    Denmark     (QFIT, Polarizable embedding model)
  K. O. Sylvester-Hvid,     University of Copenhagen,     Denmark     (MC-SCRF)
  Peter R. Taylor,          VLSCI/Univ. of Melbourne,     Australia   (Symmetry handling ABACUS, integral transformation)
  Andrew M. Teale,          University of Nottingham,     England     (DFT-AC, DFT-D)
  David P. Tew,             University of Bristol,        England     (CCSD(R12))
  Olav Vahtras,             KTH Stockholm,                Sweden      (triplet response, spin-orbit, ESR, TDDFT, open-shell DFT)
  David J. Wilson,          La Trobe University,          Australia   (DFT Hessian and DFT magnetizabilities)
  Hans Agren,               KTH Stockholm,                Sweden      (SIRIUS module, RESPONS, MC-SCRF solvation model)
 --------------------------------------------------------------------------------

     Date and time (Linux)  : Sat Aug 26 21:28:41 2017
     Host name              : chim13-cptrx04.chimie.fundp.ac.be       

 * Work memory size             :    64000000 =  488.28 megabytes.

 * Directories for basis set searches:
   1) /home/pbeaujea/Documents/tmp
   2) /home/pbeaujea/Devels/DALTON/dalton/basis


Compilation information
-----------------------

 Who compiled             | pbeaujea
 Host                     | chim13-cptrx04.chimie.fundp.ac.be
 System                   | Linux-3.13.0-37-generic
 CMake generator          | Unix Makefiles
 Processor                | x86_64
 64-bit integers          | ON
 MPI                      | OFF
 Fortran compiler         | /usr/bin/gfortran
 Fortran compiler version | GNU Fortran (Ubuntu 4.8.4-2ubuntu1~14.04.3) 4.8.4
 C compiler               | /usr/bin/gcc
 C compiler version       | gcc (Ubuntu 4.8.4-2ubuntu1~14.04.3) 4.8.4
 C++ compiler             | /usr/bin/g++
 C++ compiler version     | g++ (Ubuntu 4.8.4-2ubuntu1~14.04.3) 4.8.4
 Static linking           | OFF
 Last Git revision        | a10ef0cf7cc62686ecfeaafb7364c9b014fdc003
 Configuration time       | 2017-08-26 13:24:47.126107


   Content of the .dal input file
 ----------------------------------

**DALTON INPUT                                    
.RUN RESPONSE                                     
.DIRECT                                           
**INTEGRAL                                        
.DIPLEN                                           
**WAVE FUNCTIONS                                  
.CC                                               
*SCF INPUT                                        
*CC INPUT                                         
.CC2                                              
.MAX IT                                           
2500                                              
.MAXRED                                           
2500                                              
.MXLRV                                            
2500                                              
*CCFOP                                            
.DIPMOM                                           
*CCLR                                             
.DIPOLE                                           
.STATIC                                           
.FREQUE                                           
1                                                 
0.0428226504                                      
*CCQR                                             
.DIPOLE                                           
.STATIC                                           
.ORFREQ                                           
1                                                 
0.0428226504                                      
.EOPEFRE                                          
1                                                 
0.0428226504                                      
.SHGFRE                                           
1                                                 
0.0428226504                                      
*CCCR                                             
.DIPOLE                                           
.STATIC                                           
.DCKERR                                           
1                                                 
0.0428226504                                      
.ESHGFR                                           
1                                                 
0.0428226504                                      
.DFWMFR                                           
1                                                 
0.0428226504                                      
.THGFRE                                           
1                                                 
0.0428226504                                      
*END OF INPUT                                     


   Content of the .mol file
 ----------------------------

BASIS                                                                          
STO-3G                                                                         
Water                                                                          
                                                                               
Atomtypes=2  Angstrom                                                          
Charge=8.0 Atoms=1                                                             
O        0.000000000      0.000000000     -0.115095289                         
Charge=1.0 Atoms=2                                                             
H        0.000000000      0.767462907      0.460381156                         
H        0.000000000     -0.767462907      0.460381156                         
                                                                               


       *******************************************************************
       *********** Output from DALTON general input processing ***********
       *******************************************************************

 --------------------------------------------------------------------------------
   Overall default print level:    0
   Print level for DALTON.STAT:    1

    AO-direct calculation (in sections where implemented)
    HERMIT 1- and 2-electron integral sections will be executed
    "Old" integral transformation used (limited to max 255 basis functions)
    Wave function sections will be executed (SIRIUS module)
    Dynamic molecular response properties section will be executed (RESPONSE module)
 --------------------------------------------------------------------------------


   ****************************************************************************
   *************** Output of molecule and basis set information ***************
   ****************************************************************************


    The two title cards from your ".mol" input:
    ------------------------------------------------------------------------
 1: Water                                                                   
 2:                                                                         
    ------------------------------------------------------------------------

  Coordinates are entered in Angstrom and converted to atomic units.
          - Conversion factor : 1 bohr = 0.52917721 A

  Atomic type no.    1
  --------------------
  Nuclear charge:   8.00000
  Number of symmetry independent centers:    1
  Number of basis sets to read;    2
  Basis set file used for this atomic type with Z =   8 :
     "/home/pbeaujea/Devels/DALTON/dalton/basis/STO-3G"

  Atomic type no.    2
  --------------------
  Nuclear charge:   1.00000
  Number of symmetry independent centers:    2
  Number of basis sets to read;    2
  Basis set file used for this atomic type with Z =   1 :
     "/home/pbeaujea/Devels/DALTON/dalton/basis/STO-3G"


                      SYMADD: Requested addition of symmetry
                      --------------------------------------

 Symmetry test threshold:  5.00E-06

@   The molecule is centered at center of mass and rotated
@   so principal axes of inertia are along coordinate axes.

 Symmetry class found: C(2v)          

 Symmetry Independent Centres             
 ----------------------------
       8 :      0.00000000     0.00000000    -0.12170662  Isotope  1
       1 :      0.00000000     1.45029471     0.96578625  Isotope  1

 The following elements were found:   X  Y     


                         SYMGRP: Point group information
                         -------------------------------

@    Full point group is: C(2v)          
@    Represented as:      C2v

@  * The irrep name for each symmetry:    1: A1     2: B1     3: B2     4: A2 

   * The point group was generated by:

      Reflection in the yz-plane
      Reflection in the xz-plane

   * Group multiplication table

        |  E   C2z  Oxz  Oyz
   -----+--------------------
     E  |  E   C2z  Oxz  Oyz
    C2z | C2z   E   Oyz  Oxz
    Oxz | Oxz  Oyz   E   C2z
    Oyz | Oyz  Oxz  C2z   E 

   * Character table

        |  E   C2z  Oxz  Oyz
   -----+--------------------
    A1  |   1    1    1    1
    B1  |   1   -1    1   -1
    B2  |   1   -1   -1    1
    A2  |   1    1   -1   -1

   * Direct product table

        | A1   B1   B2   A2 
   -----+--------------------
    A1  | A1   B1   B2   A2 
    B1  | B1   A1   A2   B2 
    B2  | B2   A2   A1   B1 
    A2  | A2   B2   B1   A1 


                                 Isotopic Masses
                                 ---------------

                           O          15.994915
                           H   _1      1.007825
                           H   _2      1.007825

                       Total mass:    18.010565 amu
                       Natural abundance:  99.730 %

 Center-of-mass coordinates (a.u.):    0.000000    0.000000    0.000000


  Atoms and basis sets
  --------------------

  Number of atom types :    2
  Total number of atoms:    3

  Basis set used is "STO-3G" from the basis set library.

  label    atoms   charge   prim   cont     basis
  ----------------------------------------------------------------------
  O           1    8.0000    15     5      [6s3p|2s1p]                                        
  H           2    1.0000     3     1      [3s|1s]                                            
  ----------------------------------------------------------------------
  total:      3   10.0000    21     7
  ----------------------------------------------------------------------

  Threshold for neglecting AO integrals:  1.00D-12


  Cartesian Coordinates (a.u.)
  ----------------------------

  Total number of coordinates:    9
  O       :     1  x   0.0000000000    2  y   0.0000000000    3  z  -0.1217066210
  H   / 1 :     4  x   0.0000000000    5  y   1.4502947053    6  z   0.9657862514
  H   / 2 :     7  x   0.0000000000    8  y  -1.4502947053    9  z   0.9657862514


  Symmetry Coordinates
  --------------------

  Number of coordinates in each symmetry:     3    2    3    1

  Symmetry  A1  ( 1)

    1   O     z    3
    2   H     y    [  5  -    8 ]/2
    3   H     z    [  6  +    9 ]/2

  Symmetry  B1  ( 2)

    4   O     x    1
    5   H     x    [  4  +    7 ]/2

  Symmetry  B2  ( 3)

    6   O     y    2
    7   H     y    [  5  +    8 ]/2
    8   H     z    [  6  -    9 ]/2

  Symmetry  A2  ( 4)

    9   H     x    [  4  -    7 ]/2


   Interatomic separations (in Angstrom):
   --------------------------------------

            O           H   _1      H   _2
            ------      ------      ------
 O     :    0.000000
 H   _1:    0.959256    0.000000
 H   _2:    0.959256    1.534926    0.000000


  Max    interatomic separation is    1.5349 Angstrom (    2.9006 Bohr)
  between atoms    3 and    2, "H   _2" and "H   _1".

  Min HX interatomic separation is    0.9593 Angstrom (    1.8127 Bohr)


  Bond distances (Angstrom):
  --------------------------

                  atom 1     atom 2       distance
                  ------     ------       --------
  bond distance:  H   _1     O            0.959256
  bond distance:  H   _2     O            0.959256


  Bond angles (degrees):
  ----------------------

                  atom 1     atom 2     atom 3         angle
                  ------     ------     ------         -----
  bond angle:     H   _1     O          H   _2       106.272




 Principal moments of inertia (u*A**2) and principal axes
 --------------------------------------------------------

   IA       0.592823          0.000000    1.000000    0.000000
   IB       1.187216          0.000000    0.000000    1.000000
   IC       1.780039          1.000000    0.000000    0.000000


 Rotational constants
 --------------------

@    The molecule is planar.

               A                   B                   C

         852496.0403         425683.9593         283914.5424 MHz
           28.436207           14.199288            9.470370 cm-1


@  Nuclear repulsion energy :    9.171216386055 Hartree


  Symmetry Orbitals
  -----------------

  Number of orbitals in each symmetry:           4    1    2    0


  Symmetry  A1 ( 1)

    1     O        1s         1
    2     O        1s         2
    3     O        2pz        5
    4     H        1s         6 +    7


  Symmetry  B1 ( 2)

    5     O        2px        3


  Symmetry  B2 ( 3)

    6     O        2py        4
    7     H        1s         6 -    7


  No orbitals in symmetry  A2 ( 4)

  Symmetries of electric field:  B1 (2)  B2 (3)  A1 (1)

  Symmetries of magnetic field:  B2 (3)  B1 (2)  A2 (4)


                     .---------------------------------------.
                     | Starting in Integral Section (HERMIT) |
                     `---------------------------------------'



 ***************************************************************************************
 ****************** Output from **INTEGRALS input processing (HERMIT) ******************
 ***************************************************************************************



    *************************************************************************
    ****************** Output from HERMIT input processing ******************
    *************************************************************************


 Default print level:        1

 * Nuclear model: Point charge

 Calculation of one-electron Hamiltonian integrals.

 The following one-electron property integrals are calculated as requested:
          - overlap integrals
          - dipole length integrals

 Center of mass  (bohr):      0.000000000000      0.000000000000      0.000000000000
 Operator center (bohr):      0.000000000000      0.000000000000      0.000000000000
 Gauge origin    (bohr):      0.000000000000      0.000000000000      0.000000000000
 Dipole origin   (bohr):      0.000000000000      0.000000000000      0.000000000000


     ************************************************************************
     ************************** Output from HERINT **************************
     ************************************************************************

  Total CPU  time used in HERMIT:   0.00 seconds
  Total wall time used in HERMIT:   0.01 seconds


                        .----------------------------------.
                        | End of Integral Section (HERMIT) |
                        `----------------------------------'



                   .--------------------------------------------.
                   | Starting in Wave Function Section (SIRIUS) |
                   `--------------------------------------------'


 *** Output from Huckel module :

     Using EWMO model:          F
     Using EHT  model:          T
     Number of Huckel orbitals each symmetry:    4    1    2    0

 Huckel EHT eigenvalues for symmetry :  1
          -20.705432      -1.504729      -0.668554      -0.293147

 Huckel EHT eigenvalues for symmetry :  2
           -0.616200

 Huckel EHT eigenvalues for symmetry :  3
           -0.733958      -0.257880

 **********************************************************************
 *SIRIUS* a direct, restricted step, second order MCSCF program       *
 **********************************************************************

 
     Date and time (Linux)  : Sat Aug 26 21:28:42 2017
     Host name              : chim13-cptrx04.chimie.fundp.ac.be       

 Title lines from ".mol" input file:
     Water                                                                   
                                                                             

 Print level on unit LUPRI =   2 is   0
 Print level on unit LUW4  =   2 is   5

@    (Integral direct) CC calculation.

@    This is a combination run starting with
@              a restricted, closed shell Hartree-Fock calculation

 Fock matrices are calculated directly without use of integrals on disk.

 Initial molecular orbitals are obtained according to
 ".MOSTART EHT   " input option

     Wave function specification
     ============================

     For the specification of the Coupled Cluster: see later.

@    Wave function type        --- CC ---
@    Number of closed shell electrons          10
@    Number of electrons in active shells       0
@    Total charge of the molecule               0

@    Spin multiplicity and 2 M_S                1         0
@    Total number of symmetries                 4 (point group: C2v)
@    Reference state symmetry                   1 (irrep name : A1 )

     Orbital specifications
     ======================
@    Abelian symmetry species          All |    1    2    3    4
@                                          |  A1   B1   B2   A2 
                                       --- |  ---  ---  ---  ---
@    Total number of orbitals            7 |    4    1    2    0
@    Number of basis functions           7 |    4    1    2    0

      ** Automatic occupation of RHF orbitals **

      -- Initial occupation of symmetries is determined from extended Huckel guess.           
      -- Initial occupation of symmetries is :
@    Occupied SCF orbitals               5 |    3    1    1    0

     Maximum number of Fock   iterations      0
     Maximum number of DIIS   iterations     60
     Maximum number of QC-SCF iterations     60
     Threshold for SCF convergence     1.00D-06


 Changes of defaults for CC:
 ---------------------------


 -This is a direct atomic orbital integral based
  calculation for coupled cluster wave function
 -Linear response properties calculated
 -Quadratic response properties calculated
 -Cubic response properties calculated
 -Dipole moment calculated
  


 ***********************************************
 ***** DIIS acceleration of SCF iterations *****
 ***********************************************

 C1-DIIS algorithm; max error vectors =    4

 Automatic occupation of symmetries with  10 electrons.

 Iter     Total energy    Error norm  Delta(E)    SCF occupation
 -----------------------------------------------------------------------------
   1  Screening settings (-IFTHRS, JTDIIS, DIFDEN, times)   -5    1    T  6.69D-04  1.00D-03
@  1  -74.8649508542       1.83D+00  -7.49D+01     3   1   1   0
      Virial theorem: -V/T =      2.003261
@      MULPOP O      -0.34; H   _1  0.17; H   _2  0.17; 
   1  Level shift: doubly occupied orbital energies shifted by -2.00D-01
 -----------------------------------------------------------------------------
   2  Screening settings (-IFTHRS, JTDIIS, DIFDEN, times)   -5    2    T  9.01D-04  0.00D+00
@  2  -74.9527150666       3.08D-01  -8.78D-02     3   1   1   0
      Virial theorem: -V/T =      2.006438
@      MULPOP O      -0.37; H   _1  0.19; H   _2  0.19; 
   2  Level shift: doubly occupied orbital energies shifted by -5.00D-02
 -----------------------------------------------------------------------------
   3  Screening settings (-IFTHRS, JTDIIS, DIFDEN, times)   -5    3    T  3.47D-03  1.00D-03
@  3  -74.9619168624       7.49D-02  -9.20D-03     3   1   1   0
      Virial theorem: -V/T =      2.005625
@      MULPOP O      -0.37; H   _1  0.18; H   _2  0.18; 
   3  Level shift: doubly occupied orbital energies shifted by -1.25D-02
 -----------------------------------------------------------------------------
   4  Screening settings (-IFTHRS, JTDIIS, DIFDEN, times)   -7    4    F  0.00D+00  1.00D-03
@  4  -74.9625201223       7.08D-03  -6.03D-04     3   1   1   0
      Virial theorem: -V/T =      2.005092
@      MULPOP O      -0.37; H   _1  0.18; H   _2  0.18; 
 -----------------------------------------------------------------------------
   5  Screening settings (-IFTHRS, JTDIIS, DIFDEN, times)  -10    5    F  0.00D+00  1.00D-03
@  5  -74.9625293204       1.99D-03  -9.20D-06     3   1   1   0
      Virial theorem: -V/T =      2.005082
@      MULPOP O      -0.37; H   _1  0.18; H   _2  0.18; 
 -----------------------------------------------------------------------------
   6  Screening settings (-IFTHRS, JTDIIS, DIFDEN, times)  -10    6    T  7.06D-04  1.00D-03
@  6  -74.9625300843       2.68D-05  -7.64D-07     3   1   1   0
      Virial theorem: -V/T =      2.005072
@      MULPOP O      -0.37; H   _1  0.18; H   _2  0.18; 
 -----------------------------------------------------------------------------
   7  Screening settings (-IFTHRS, JTDIIS, DIFDEN, times)  -10    7    T  3.35D-03  1.00D-03
@  7  -74.9625300843       9.02D-08  -5.05D-11     3   1   1   0

@ *** DIIS converged in   7 iterations !
@     Converged SCF energy, gradient:    -74.962530084340    9.02D-08
    - total time used in SIRFCK :              0.00 seconds


 *** SCF orbital energy analysis ***

 Number of electrons :   10
 Orbital occupations :    3    1    1    0

 Sym       Hartree-Fock orbital energies

1 A1    -20.23945543    -1.26520619    -0.44849071     0.60032113

2 B1     -0.38972796

3 B2     -0.61961856     0.74514210

    E(LUMO) :     0.60032113 au (symmetry 1)
  - E(HOMO) :    -0.38972796 au (symmetry 2)
  ------------------------------------------
    gap     :     0.99004909 au

 --- Writing SIRIFC interface file

 CPU and wall time for SCF :       0.010       0.009


                       .-----------------------------------.
                       | --- Final results from SIRIUS --- |
                       `-----------------------------------'


@    Spin multiplicity:           1
@    Spatial symmetry:            1 ( irrep  A1  in C2v )
@    Total charge of molecule:    0

@    Final HF energy:             -74.962530084340                 
@    Nuclear repulsion:             9.171216386055
@    Electronic energy:           -84.133746470395

@    Final gradient norm:           0.000000090248

 
     Date and time (Linux)  : Sat Aug 26 21:28:42 2017
     Host name              : chim13-cptrx04.chimie.fundp.ac.be       

File label for MO orbitals:  26Aug17   FOCKDIIS

 (Only coefficients > 0.0100 are printed.)

 Molecular orbitals for symmetry species 1  (A1 )
 ------------------------------------------------

    Orbital         1        2        3        4
   1 O   :1s     0.9941  -0.2330   0.1019   0.1329
   2 O   :1s     0.0265   0.8346  -0.5308  -0.8851
   3 O   :2pz    0.0043   0.1270   0.7818  -0.7325
   4 H   :1s    -0.0060   0.1589   0.2767   0.7975

 Molecular orbitals for symmetry species 2  (B1 )
 ------------------------------------------------

    Orbital         1
   1 O   :2px    1.0000

 Molecular orbitals for symmetry species 3  (B2 )
 ------------------------------------------------

    Orbital         1        2
   1 O   :2py    0.6039  -0.9945
   2 H   :1s     0.4441   0.8356

  Total CPU  time used in SIRIUS :   0.01 seconds
  Total wall time used in SIRIUS :   0.02 seconds

 
     Date and time (Linux)  : Sat Aug 26 21:28:42 2017
     Host name              : chim13-cptrx04.chimie.fundp.ac.be       


                     .---------------------------------------.
                     | End of Wave Function Section (SIRIUS) |
                     `---------------------------------------'



                    .------------------------------------------.
                    | Starting in Coupled Cluster Section (CC) |
                    `------------------------------------------'

  

 *******************************************************************************
 *******************************************************************************
 *                                                                             *
 *                                                                             *
 *                    START OF COUPLED CLUSTER CALCULATION                     *
 *                                                                             *
 *                                                                             *
 *******************************************************************************
 *******************************************************************************



 CCR12 ANSATZ =   0

 CCR12 APPROX =   0

   

 *******************************************************************
 *                                                                 *
 *----------                                             >---------*
 *---------- OUTPUT FROM COUPLED CLUSTER ENERGY PROGRAM  >---------*
 *----------                                             >---------*
 *                                                                 *
 *******************************************************************


             The Direct Coupled Cluster Energy Program
             -----------------------------------------


          Number of t1 amplitudes                 :             4
          Number of t2 amplitudes                 :            22
          Total number of amplitudes in ccsd      :            26

 Iter.  1: Coupled cluster MP2   energy :     -74.9979420964748016
 Iter.  1: Coupled cluster CC2   energy :     -74.9979338207343176
 Iter.  2: Coupled cluster CC2   energy :     -74.9980577450459833
 Iter.  3: Coupled cluster CC2   energy :     -74.9980675004431276
 Iter.  4: Coupled cluster CC2   energy :     -74.9980678843267725
 Iter.  5: Coupled cluster CC2   energy :     -74.9980678986126748
 Iter.  6: Coupled cluster CC2   energy :     -74.9980678942790604

 CC2   energy converged to within   0.10D-07 is          -74.998067894279
 Final 2-norm of the CC vector function:  9.81178068D-07





             +-------------------------------------------------------+
             ! Final results from the Coupled Cluster energy program !
             +-------------------------------------------------------+



            Total SCF   energy:                   -74.9625300843

            Total MP2   energy:                   -74.9979420965

            Total CC2   energy:                   -74.9980678943




                   +--------------------------------------------+
                   ! Calculating singlet intermediates for CCLR !
                   +--------------------------------------------+



            E-intermediates calculated 
            Fock-intermediate calculated 


   

 *******************************************************************
 *                                                                 *
 *---- OUTPUT FROM COUPLED CLUSTER RESPONSE  -------------*
 *                                                                 *
 *----------    CALCULATION OF FIRST ORDER PROPERTIES    >---------*
 *                                                                 *
 *******************************************************************



                         +-------------------------------+
                         ! Coupled Cluster model is: CC2 !
                         +-------------------------------+

 RPA: call cceq_str
 RPA: exit cceq_str
 CC_FOP> Norm of RHS vector:   3.7801677140196033E-005


                      Solving for orbital relaxation vector
                      -------------------------------------


   Equations converged to residual less than:  0.000010
 CCFOP: call CC_D1AO to recalc the 1e Density
  


             +--------------------------------------------------------+
             !   Relaxed  CC2    First-order one-electron properties: !
             +--------------------------------------------------------+



                            +-------------------------+
                            !  Electric Dipole Moment !
                            +-------------------------+



                          Total Molecular Dipole Moment
                          -----------------------------

                 au               Debye          C m (/(10**-30)

      z      0.64738077         1.64547768         5.48872272


     

   *******************************************************************
   *                                                                 *
   *--------   OUTPUT FROM PROPERTY AND SYMMETRY ANALYSIS   ---------*
   *                                                                 *
   *******************************************************************


  PUT TRIPLE: XDIPLEN  XDIPLEN  XDIPLEN  ON THE LIST.

  PUT TRIPLE: XDIPLEN  XDIPLEN  YDIPLEN  ON THE LIST.

  PUT TRIPLE: XDIPLEN  XDIPLEN  ZDIPLEN  ON THE LIST.

  PUT TRIPLE: XDIPLEN  YDIPLEN  XDIPLEN  ON THE LIST.

  PUT TRIPLE: XDIPLEN  YDIPLEN  YDIPLEN  ON THE LIST.

  PUT TRIPLE: XDIPLEN  YDIPLEN  ZDIPLEN  ON THE LIST.

  PUT TRIPLE: XDIPLEN  ZDIPLEN  XDIPLEN  ON THE LIST.

  PUT TRIPLE: XDIPLEN  ZDIPLEN  YDIPLEN  ON THE LIST.

  PUT TRIPLE: XDIPLEN  ZDIPLEN  ZDIPLEN  ON THE LIST.

  PUT TRIPLE: YDIPLEN  XDIPLEN  XDIPLEN  ON THE LIST.

  PUT TRIPLE: YDIPLEN  XDIPLEN  YDIPLEN  ON THE LIST.

  PUT TRIPLE: YDIPLEN  XDIPLEN  ZDIPLEN  ON THE LIST.

  PUT TRIPLE: YDIPLEN  YDIPLEN  XDIPLEN  ON THE LIST.

  PUT TRIPLE: YDIPLEN  YDIPLEN  YDIPLEN  ON THE LIST.

  PUT TRIPLE: YDIPLEN  YDIPLEN  ZDIPLEN  ON THE LIST.

  PUT TRIPLE: YDIPLEN  ZDIPLEN  XDIPLEN  ON THE LIST.

  PUT TRIPLE: YDIPLEN  ZDIPLEN  YDIPLEN  ON THE LIST.

  PUT TRIPLE: YDIPLEN  ZDIPLEN  ZDIPLEN  ON THE LIST.

  PUT TRIPLE: ZDIPLEN  XDIPLEN  XDIPLEN  ON THE LIST.

  PUT TRIPLE: ZDIPLEN  XDIPLEN  YDIPLEN  ON THE LIST.

  PUT TRIPLE: ZDIPLEN  XDIPLEN  ZDIPLEN  ON THE LIST.

  PUT TRIPLE: ZDIPLEN  YDIPLEN  XDIPLEN  ON THE LIST.

  PUT TRIPLE: ZDIPLEN  YDIPLEN  YDIPLEN  ON THE LIST.

  PUT TRIPLE: ZDIPLEN  YDIPLEN  ZDIPLEN  ON THE LIST.

  PUT TRIPLE: ZDIPLEN  ZDIPLEN  XDIPLEN  ON THE LIST.

  PUT TRIPLE: ZDIPLEN  ZDIPLEN  YDIPLEN  ON THE LIST.

  PUT TRIPLE: ZDIPLEN  ZDIPLEN  ZDIPLEN  ON THE LIST.


                         +-------------------------------+
                         ! REQUESTED PROPERTY OPERATORS: !
                         +-------------------------------+

             Index   Oper. Label  Symmetry  Transp.  PDBS  Atom
             --------------------------------------------------
                1     HAM0            1        1      T      0
                2     ZDIPLEN         1        1      F      0
                3     XDIPLEN         2        1      F      0
                4     YDIPLEN         3        1      F      0
             --------------------------------------------------




                         +-------------------------------+
                         ! REQUESTED EXPECTATION VALUES: !
                         +-------------------------------+

                       Index   Oper. Label  Symmetry
                       -----------------------------
                       -----------------------------




                       +------------------------------------+
                       ! REQUESTED EFFECTIVE FOCK MATRICES: !
                       +------------------------------------+

                       Index   Oper. Label  Symmetry
                       -----------------------------
                       -----------------------------




                       +-----------------------------------+
                       ! REQUESTED FIRST ORDER XI VECTORS: !
                       +-----------------------------------+

             Index   Oper. Label  relaxed  Sym.     Frequency
             --------------------------------------------------
                1      ZDIPLEN        F     1      0.000000D+00
                2      XDIPLEN        F     2      0.000000D+00
                3      YDIPLEN        F     3      0.000000D+00
             --------------------------------------------------




                        +----------------------------------+
                        ! REQUESTED FIRST ORDER T VECTORS: !
                        +----------------------------------+

             Index   Oper. Label  relaxed  Sym.     Frequency
             --------------------------------------------------
                1      ZDIPLEN        F     1     -1.284680D-01
                2      ZDIPLEN        F     1     -8.564530D-02
                3      ZDIPLEN        F     1     -4.282265D-02
                4      ZDIPLEN        F     1      0.000000D+00
                5      ZDIPLEN        F     1      4.282265D-02
                6      ZDIPLEN        F     1      8.564530D-02
                7      ZDIPLEN        F     1      1.284680D-01
                8      XDIPLEN        F     2     -1.284680D-01
                9      XDIPLEN        F     2     -8.564530D-02
               10      XDIPLEN        F     2     -4.282265D-02
               11      XDIPLEN        F     2      0.000000D+00
               12      XDIPLEN        F     2      4.282265D-02
               13      XDIPLEN        F     2      8.564530D-02
               14      XDIPLEN        F     2      1.284680D-01
               15      YDIPLEN        F     3     -1.284680D-01
               16      YDIPLEN        F     3     -8.564530D-02
               17      YDIPLEN        F     3     -4.282265D-02
               18      YDIPLEN        F     3      0.000000D+00
               19      YDIPLEN        F     3      4.282265D-02
               20      YDIPLEN        F     3      8.564530D-02
               21      YDIPLEN        F     3      1.284680D-01
             --------------------------------------------------




                       +------------------------------------+
                       ! REQUESTED FIRST ORDER ETA VECTORS: !
                       +------------------------------------+

             Index   Oper. Label  relaxed  Sym.     Frequency
             --------------------------------------------------
                1      ZDIPLEN        F     1      0.000000D+00
                2      XDIPLEN        F     2      0.000000D+00
                3      YDIPLEN        F     3      0.000000D+00
             --------------------------------------------------




                      +-------------------------------------+
                      ! REQUESTED FIRST ORDER ZETA VECTORS: !
                      +-------------------------------------+

             Index   Oper. Label  relaxed  Sym.     Frequency
             --------------------------------------------------
                1      ZDIPLEN        F     1     -1.284680D-01
                2      ZDIPLEN        F     1     -8.564530D-02
                3      ZDIPLEN        F     1     -4.282265D-02
                4      ZDIPLEN        F     1      0.000000D+00
                5      ZDIPLEN        F     1      4.282265D-02
                6      ZDIPLEN        F     1      8.564530D-02
                7      ZDIPLEN        F     1      1.284680D-01
                8      XDIPLEN        F     2     -1.284680D-01
                9      XDIPLEN        F     2     -8.564530D-02
               10      XDIPLEN        F     2     -4.282265D-02
               11      XDIPLEN        F     2     -0.000000D+00
               12      XDIPLEN        F     2      4.282265D-02
               13      XDIPLEN        F     2      8.564530D-02
               14      XDIPLEN        F     2      1.284680D-01
               15      YDIPLEN        F     3     -1.284680D-01
               16      YDIPLEN        F     3     -8.564530D-02
               17      YDIPLEN        F     3     -4.282265D-02
               18      YDIPLEN        F     3     -0.000000D+00
               19      YDIPLEN        F     3      4.282265D-02
               20      YDIPLEN        F     3      8.564530D-02
               21      YDIPLEN        F     3      1.284680D-01
             --------------------------------------------------




                      +--------------------------------------+
                      ! REQUESTED SECOND-ORDER XKSI VECTORS: !
                      +--------------------------------------+

     Index    Oper. Label  Symmetry  Frequency   Oper. Label  Symmetry  Frequency  Symmetry
     ----------------------------------------------------------------------
    1   ZDIPLEN   1    -1.284680D-01   ZDIPLEN   1     4.282265D-02  1
    2   ZDIPLEN   1    -8.564530D-02   ZDIPLEN   1     0.000000D+00  1
    3   ZDIPLEN   1    -8.564530D-02   ZDIPLEN   1     4.282265D-02  1
    4   ZDIPLEN   1    -4.282265D-02   ZDIPLEN   1    -4.282265D-02  1
    5   ZDIPLEN   1    -0.000000D+00   ZDIPLEN   1    -4.282265D-02  1
    6   ZDIPLEN   1     0.000000D+00   ZDIPLEN   1     0.000000D+00  1
    7   ZDIPLEN   1     0.000000D+00   ZDIPLEN   1     4.282265D-02  1
    8   ZDIPLEN   1     4.282265D-02   ZDIPLEN   1    -4.282265D-02  1
    9   ZDIPLEN   1     4.282265D-02   ZDIPLEN   1     4.282265D-02  1
   10   ZDIPLEN   1     8.564530D-02   ZDIPLEN   1    -4.282265D-02  1
   11   ZDIPLEN   1     8.564530D-02   ZDIPLEN   1    -0.000000D+00  1
   12   ZDIPLEN   1     1.284680D-01   ZDIPLEN   1    -4.282265D-02  1
   13   XDIPLEN   2    -1.284680D-01   XDIPLEN   2     4.282265D-02  1
   14   XDIPLEN   2    -8.564530D-02   XDIPLEN   2     0.000000D+00  1
   15   XDIPLEN   2    -8.564530D-02   XDIPLEN   2     4.282265D-02  1
   16   XDIPLEN   2    -4.282265D-02   XDIPLEN   2    -4.282265D-02  1
   17   XDIPLEN   2    -4.282265D-02   XDIPLEN   2     0.000000D+00  1
   18   XDIPLEN   2    -4.282265D-02   XDIPLEN   2     4.282265D-02  1
   19   XDIPLEN   2    -0.000000D+00   XDIPLEN   2     0.000000D+00  1
   20   XDIPLEN   2     4.282265D-02   XDIPLEN   2    -0.000000D+00  1
   21   XDIPLEN   2     4.282265D-02   XDIPLEN   2     4.282265D-02  1
   22   XDIPLEN   2     8.564530D-02   XDIPLEN   2    -4.282265D-02  1
   23   XDIPLEN   2     8.564530D-02   XDIPLEN   2    -0.000000D+00  1
   24   XDIPLEN   2     1.284680D-01   XDIPLEN   2    -4.282265D-02  1
   25   YDIPLEN   3    -1.284680D-01   YDIPLEN   3     4.282265D-02  1
   26   YDIPLEN   3    -8.564530D-02   YDIPLEN   3     0.000000D+00  1
   27   YDIPLEN   3    -8.564530D-02   YDIPLEN   3     4.282265D-02  1
   28   YDIPLEN   3    -4.282265D-02   YDIPLEN   3    -4.282265D-02  1
   29   YDIPLEN   3    -0.000000D+00   YDIPLEN   3    -4.282265D-02  1
   30   YDIPLEN   3     0.000000D+00   YDIPLEN   3     0.000000D+00  1
   31   YDIPLEN   3     0.000000D+00   YDIPLEN   3     4.282265D-02  1
   32   YDIPLEN   3     4.282265D-02   YDIPLEN   3    -4.282265D-02  1
   33   YDIPLEN   3     4.282265D-02   YDIPLEN   3     4.282265D-02  1
   34   YDIPLEN   3     8.564530D-02   YDIPLEN   3    -4.282265D-02  1
   35   YDIPLEN   3     8.564530D-02   YDIPLEN   3    -0.000000D+00  1
   36   YDIPLEN   3     1.284680D-01   YDIPLEN   3    -4.282265D-02  1
   37   ZDIPLEN   1    -1.284680D-01   XDIPLEN   2     4.282265D-02  2
   38   ZDIPLEN   1    -8.564530D-02   XDIPLEN   2     0.000000D+00  2
   39   ZDIPLEN   1    -8.564530D-02   XDIPLEN   2     4.282265D-02  2
   40   ZDIPLEN   1     8.564530D-02   XDIPLEN   2    -4.282265D-02  2
   41   ZDIPLEN   1     8.564530D-02   XDIPLEN   2    -0.000000D+00  2
   42   ZDIPLEN   1     1.284680D-01   XDIPLEN   2    -4.282265D-02  2
   43   XDIPLEN   2    -1.284680D-01   ZDIPLEN   1     4.282265D-02  2
   44   XDIPLEN   2    -8.564530D-02   ZDIPLEN   1     0.000000D+00  2
   45   XDIPLEN   2    -8.564530D-02   ZDIPLEN   1     4.282265D-02  2
   46   XDIPLEN   2    -4.282265D-02   ZDIPLEN   1    -4.282265D-02  2
   47   XDIPLEN   2    -4.282265D-02   ZDIPLEN   1     0.000000D+00  2
   48   XDIPLEN   2    -4.282265D-02   ZDIPLEN   1     4.282265D-02  2
   49   XDIPLEN   2    -0.000000D+00   ZDIPLEN   1    -4.282265D-02  2
   50   XDIPLEN   2    -0.000000D+00   ZDIPLEN   1     0.000000D+00  2
   51   XDIPLEN   2     0.000000D+00   ZDIPLEN   1     4.282265D-02  2
   52   XDIPLEN   2     4.282265D-02   ZDIPLEN   1    -4.282265D-02  2
   53   XDIPLEN   2     4.282265D-02   ZDIPLEN   1    -0.000000D+00  2
   54   XDIPLEN   2     4.282265D-02   ZDIPLEN   1     4.282265D-02  2
   55   XDIPLEN   2     8.564530D-02   ZDIPLEN   1    -4.282265D-02  2
   56   XDIPLEN   2     8.564530D-02   ZDIPLEN   1    -0.000000D+00  2
   57   XDIPLEN   2     1.284680D-01   ZDIPLEN   1    -4.282265D-02  2
   58   ZDIPLEN   1    -1.284680D-01   YDIPLEN   3     4.282265D-02  3
   59   ZDIPLEN   1    -8.564530D-02   YDIPLEN   3     0.000000D+00  3
   60   ZDIPLEN   1    -8.564530D-02   YDIPLEN   3     4.282265D-02  3
   61   ZDIPLEN   1     8.564530D-02   YDIPLEN   3    -4.282265D-02  3
   62   ZDIPLEN   1     8.564530D-02   YDIPLEN   3    -0.000000D+00  3
   63   ZDIPLEN   1     1.284680D-01   YDIPLEN   3    -4.282265D-02  3
   64   YDIPLEN   3    -1.284680D-01   ZDIPLEN   1     4.282265D-02  3
   65   YDIPLEN   3    -8.564530D-02   ZDIPLEN   1     0.000000D+00  3
   66   YDIPLEN   3    -8.564530D-02   ZDIPLEN   1     4.282265D-02  3
   67   YDIPLEN   3    -4.282265D-02   ZDIPLEN   1    -4.282265D-02  3
   68   YDIPLEN   3    -4.282265D-02   ZDIPLEN   1     0.000000D+00  3
   69   YDIPLEN   3    -4.282265D-02   ZDIPLEN   1     4.282265D-02  3
   70   YDIPLEN   3    -0.000000D+00   ZDIPLEN   1    -4.282265D-02  3
   71   YDIPLEN   3    -0.000000D+00   ZDIPLEN   1     0.000000D+00  3
   72   YDIPLEN   3     0.000000D+00   ZDIPLEN   1     4.282265D-02  3
   73   YDIPLEN   3     4.282265D-02   ZDIPLEN   1    -4.282265D-02  3
   74   YDIPLEN   3     4.282265D-02   ZDIPLEN   1    -0.000000D+00  3
   75   YDIPLEN   3     4.282265D-02   ZDIPLEN   1     4.282265D-02  3
   76   YDIPLEN   3     8.564530D-02   ZDIPLEN   1    -4.282265D-02  3
   77   YDIPLEN   3     8.564530D-02   ZDIPLEN   1    -0.000000D+00  3
   78   YDIPLEN   3     1.284680D-01   ZDIPLEN   1    -4.282265D-02  3
   79   XDIPLEN   2    -1.284680D-01   YDIPLEN   3     4.282265D-02  4
   80   XDIPLEN   2    -8.564530D-02   YDIPLEN   3     0.000000D+00  4
   81   XDIPLEN   2    -8.564530D-02   YDIPLEN   3     4.282265D-02  4
   82   XDIPLEN   2    -4.282265D-02   YDIPLEN   3    -4.282265D-02  4
   83   XDIPLEN   2    -4.282265D-02   YDIPLEN   3     0.000000D+00  4
   84   XDIPLEN   2    -4.282265D-02   YDIPLEN   3     4.282265D-02  4
   85   XDIPLEN   2    -0.000000D+00   YDIPLEN   3    -4.282265D-02  4
   86   XDIPLEN   2    -0.000000D+00   YDIPLEN   3     0.000000D+00  4
   87   XDIPLEN   2     0.000000D+00   YDIPLEN   3     4.282265D-02  4
   88   XDIPLEN   2     4.282265D-02   YDIPLEN   3    -4.282265D-02  4
   89   XDIPLEN   2     4.282265D-02   YDIPLEN   3    -0.000000D+00  4
   90   XDIPLEN   2     4.282265D-02   YDIPLEN   3     4.282265D-02  4
   91   XDIPLEN   2     8.564530D-02   YDIPLEN   3    -4.282265D-02  4
   92   XDIPLEN   2     8.564530D-02   YDIPLEN   3    -0.000000D+00  4
   93   XDIPLEN   2     1.284680D-01   YDIPLEN   3    -4.282265D-02  4
   94   YDIPLEN   3    -1.284680D-01   XDIPLEN   2     4.282265D-02  4
   95   YDIPLEN   3    -8.564530D-02   XDIPLEN   2     0.000000D+00  4
   96   YDIPLEN   3    -8.564530D-02   XDIPLEN   2     4.282265D-02  4
   97   YDIPLEN   3     8.564530D-02   XDIPLEN   2    -4.282265D-02  4
   98   YDIPLEN   3     8.564530D-02   XDIPLEN   2    -0.000000D+00  4
   99   YDIPLEN   3     1.284680D-01   XDIPLEN   2    -4.282265D-02  4
     ----------------------------------------------------------------------




                       +-----------------------------------+
                       ! REQUESTED SECOND-ORDER T VECTORS: !
                       +-----------------------------------+

     Index    Oper. Label  Symmetry  Frequency   Oper. Label  Symmetry  Frequency  Symmetry
     ----------------------------------------------------------------------
    1   ZDIPLEN   1    -1.284680D-01   ZDIPLEN   1     4.282265D-02  1
    2   ZDIPLEN   1    -8.564530D-02   ZDIPLEN   1     0.000000D+00  1
    3   ZDIPLEN   1    -8.564530D-02   ZDIPLEN   1     4.282265D-02  1
    4   ZDIPLEN   1    -4.282265D-02   ZDIPLEN   1    -4.282265D-02  1
    5   ZDIPLEN   1    -0.000000D+00   ZDIPLEN   1    -4.282265D-02  1
    6   ZDIPLEN   1     0.000000D+00   ZDIPLEN   1     0.000000D+00  1
    7   ZDIPLEN   1     0.000000D+00   ZDIPLEN   1     4.282265D-02  1
    8   ZDIPLEN   1     4.282265D-02   ZDIPLEN   1    -4.282265D-02  1
    9   ZDIPLEN   1     4.282265D-02   ZDIPLEN   1     4.282265D-02  1
   10   ZDIPLEN   1     8.564530D-02   ZDIPLEN   1    -4.282265D-02  1
   11   ZDIPLEN   1     8.564530D-02   ZDIPLEN   1    -0.000000D+00  1
   12   ZDIPLEN   1     1.284680D-01   ZDIPLEN   1    -4.282265D-02  1
   13   XDIPLEN   2    -1.284680D-01   XDIPLEN   2     4.282265D-02  1
   14   XDIPLEN   2    -8.564530D-02   XDIPLEN   2     0.000000D+00  1
   15   XDIPLEN   2    -8.564530D-02   XDIPLEN   2     4.282265D-02  1
   16   XDIPLEN   2    -4.282265D-02   XDIPLEN   2    -4.282265D-02  1
   17   XDIPLEN   2    -4.282265D-02   XDIPLEN   2     0.000000D+00  1
   18   XDIPLEN   2    -4.282265D-02   XDIPLEN   2     4.282265D-02  1
   19   XDIPLEN   2    -0.000000D+00   XDIPLEN   2     0.000000D+00  1
   20   XDIPLEN   2     4.282265D-02   XDIPLEN   2    -0.000000D+00  1
   21   XDIPLEN   2     4.282265D-02   XDIPLEN   2     4.282265D-02  1
   22   XDIPLEN   2     8.564530D-02   XDIPLEN   2    -4.282265D-02  1
   23   XDIPLEN   2     8.564530D-02   XDIPLEN   2    -0.000000D+00  1
   24   XDIPLEN   2     1.284680D-01   XDIPLEN   2    -4.282265D-02  1
   25   YDIPLEN   3    -1.284680D-01   YDIPLEN   3     4.282265D-02  1
   26   YDIPLEN   3    -8.564530D-02   YDIPLEN   3     0.000000D+00  1
   27   YDIPLEN   3    -8.564530D-02   YDIPLEN   3     4.282265D-02  1
   28   YDIPLEN   3    -4.282265D-02   YDIPLEN   3    -4.282265D-02  1
   29   YDIPLEN   3    -0.000000D+00   YDIPLEN   3    -4.282265D-02  1
   30   YDIPLEN   3     0.000000D+00   YDIPLEN   3     0.000000D+00  1
   31   YDIPLEN   3     0.000000D+00   YDIPLEN   3     4.282265D-02  1
   32   YDIPLEN   3     4.282265D-02   YDIPLEN   3    -4.282265D-02  1
   33   YDIPLEN   3     4.282265D-02   YDIPLEN   3     4.282265D-02  1
   34   YDIPLEN   3     8.564530D-02   YDIPLEN   3    -4.282265D-02  1
   35   YDIPLEN   3     8.564530D-02   YDIPLEN   3    -0.000000D+00  1
   36   YDIPLEN   3     1.284680D-01   YDIPLEN   3    -4.282265D-02  1
   37   ZDIPLEN   1    -1.284680D-01   XDIPLEN   2     4.282265D-02  2
   38   ZDIPLEN   1    -8.564530D-02   XDIPLEN   2     0.000000D+00  2
   39   ZDIPLEN   1    -8.564530D-02   XDIPLEN   2     4.282265D-02  2
   40   ZDIPLEN   1     8.564530D-02   XDIPLEN   2    -4.282265D-02  2
   41   ZDIPLEN   1     8.564530D-02   XDIPLEN   2    -0.000000D+00  2
   42   ZDIPLEN   1     1.284680D-01   XDIPLEN   2    -4.282265D-02  2
   43   XDIPLEN   2    -1.284680D-01   ZDIPLEN   1     4.282265D-02  2
   44   XDIPLEN   2    -8.564530D-02   ZDIPLEN   1     0.000000D+00  2
   45   XDIPLEN   2    -8.564530D-02   ZDIPLEN   1     4.282265D-02  2
   46   XDIPLEN   2    -4.282265D-02   ZDIPLEN   1    -4.282265D-02  2
   47   XDIPLEN   2    -4.282265D-02   ZDIPLEN   1     0.000000D+00  2
   48   XDIPLEN   2    -4.282265D-02   ZDIPLEN   1     4.282265D-02  2
   49   XDIPLEN   2    -0.000000D+00   ZDIPLEN   1    -4.282265D-02  2
   50   XDIPLEN   2    -0.000000D+00   ZDIPLEN   1     0.000000D+00  2
   51   XDIPLEN   2     0.000000D+00   ZDIPLEN   1     4.282265D-02  2
   52   XDIPLEN   2     4.282265D-02   ZDIPLEN   1    -4.282265D-02  2
   53   XDIPLEN   2     4.282265D-02   ZDIPLEN   1    -0.000000D+00  2
   54   XDIPLEN   2     4.282265D-02   ZDIPLEN   1     4.282265D-02  2
   55   XDIPLEN   2     8.564530D-02   ZDIPLEN   1    -4.282265D-02  2
   56   XDIPLEN   2     8.564530D-02   ZDIPLEN   1    -0.000000D+00  2
   57   XDIPLEN   2     1.284680D-01   ZDIPLEN   1    -4.282265D-02  2
   58   ZDIPLEN   1    -1.284680D-01   YDIPLEN   3     4.282265D-02  3
   59   ZDIPLEN   1    -8.564530D-02   YDIPLEN   3     0.000000D+00  3
   60   ZDIPLEN   1    -8.564530D-02   YDIPLEN   3     4.282265D-02  3
   61   ZDIPLEN   1     8.564530D-02   YDIPLEN   3    -4.282265D-02  3
   62   ZDIPLEN   1     8.564530D-02   YDIPLEN   3    -0.000000D+00  3
   63   ZDIPLEN   1     1.284680D-01   YDIPLEN   3    -4.282265D-02  3
   64   YDIPLEN   3    -1.284680D-01   ZDIPLEN   1     4.282265D-02  3
   65   YDIPLEN   3    -8.564530D-02   ZDIPLEN   1     0.000000D+00  3
   66   YDIPLEN   3    -8.564530D-02   ZDIPLEN   1     4.282265D-02  3
   67   YDIPLEN   3    -4.282265D-02   ZDIPLEN   1    -4.282265D-02  3
   68   YDIPLEN   3    -4.282265D-02   ZDIPLEN   1     0.000000D+00  3
   69   YDIPLEN   3    -4.282265D-02   ZDIPLEN   1     4.282265D-02  3
   70   YDIPLEN   3    -0.000000D+00   ZDIPLEN   1    -4.282265D-02  3
   71   YDIPLEN   3    -0.000000D+00   ZDIPLEN   1     0.000000D+00  3
   72   YDIPLEN   3     0.000000D+00   ZDIPLEN   1     4.282265D-02  3
   73   YDIPLEN   3     4.282265D-02   ZDIPLEN   1    -4.282265D-02  3
   74   YDIPLEN   3     4.282265D-02   ZDIPLEN   1    -0.000000D+00  3
   75   YDIPLEN   3     4.282265D-02   ZDIPLEN   1     4.282265D-02  3
   76   YDIPLEN   3     8.564530D-02   ZDIPLEN   1    -4.282265D-02  3
   77   YDIPLEN   3     8.564530D-02   ZDIPLEN   1    -0.000000D+00  3
   78   YDIPLEN   3     1.284680D-01   ZDIPLEN   1    -4.282265D-02  3
   79   XDIPLEN   2    -1.284680D-01   YDIPLEN   3     4.282265D-02  4
   80   XDIPLEN   2    -8.564530D-02   YDIPLEN   3     0.000000D+00  4
   81   XDIPLEN   2    -8.564530D-02   YDIPLEN   3     4.282265D-02  4
   82   XDIPLEN   2    -4.282265D-02   YDIPLEN   3    -4.282265D-02  4
   83   XDIPLEN   2    -4.282265D-02   YDIPLEN   3     0.000000D+00  4
   84   XDIPLEN   2    -4.282265D-02   YDIPLEN   3     4.282265D-02  4
   85   XDIPLEN   2    -0.000000D+00   YDIPLEN   3    -4.282265D-02  4
   86   XDIPLEN   2    -0.000000D+00   YDIPLEN   3     0.000000D+00  4
   87   XDIPLEN   2     0.000000D+00   YDIPLEN   3     4.282265D-02  4
   88   XDIPLEN   2     4.282265D-02   YDIPLEN   3    -4.282265D-02  4
   89   XDIPLEN   2     4.282265D-02   YDIPLEN   3    -0.000000D+00  4
   90   XDIPLEN   2     4.282265D-02   YDIPLEN   3     4.282265D-02  4
   91   XDIPLEN   2     8.564530D-02   YDIPLEN   3    -4.282265D-02  4
   92   XDIPLEN   2     8.564530D-02   YDIPLEN   3    -0.000000D+00  4
   93   XDIPLEN   2     1.284680D-01   YDIPLEN   3    -4.282265D-02  4
   94   YDIPLEN   3    -1.284680D-01   XDIPLEN   2     4.282265D-02  4
   95   YDIPLEN   3    -8.564530D-02   XDIPLEN   2     0.000000D+00  4
   96   YDIPLEN   3    -8.564530D-02   XDIPLEN   2     4.282265D-02  4
   97   YDIPLEN   3     8.564530D-02   XDIPLEN   2    -4.282265D-02  4
   98   YDIPLEN   3     8.564530D-02   XDIPLEN   2    -0.000000D+00  4
   99   YDIPLEN   3     1.284680D-01   XDIPLEN   2    -4.282265D-02  4
     ----------------------------------------------------------------------


      

    *******************************************************************
    *          SOLVING COUPLED CLUSTER RESPONSE EQUATIONS             *
    *******************************************************************



 
 +======================================================================+
 !                     RHS & ETA VECTORS TO COMPUTE:                    !
 +======================================================================+
 | TYPE | # VEC. |  NEEDED FOR:                                         |
 +----------------------------------------------------------------------+
 |  O1  |    3   |  first-order amplitude equations                     |
 |  X1  |    3   |  first-order multipliers equations                   |
 |  O2  |   99   |  second-order amplitude equations                    |
 +======================================================================+



 +======================================================================+
 !                       LINEAR EQUATIONS TO SOLVE:                     !
 +======================================================================+
 | TYPE | # VEC. |  EQUATION:                                           |
 +----------------------------------------------------------------------+
 |  R1  |   21   |  first-order amplitude response                      |
 |  L1  |   21   |  first-order multiplier response                     |
 |  R2  |   99   |  second-order amplitude response                     |
 +======================================================================+



 +======================================================================+
 !                F MATRIX TRANSFORMATIONS TO COMPUTE:                  !
 +======================================================================+
 | TYPE | # VEC. |  TRANSFORMED:                                        |
 +----------------------------------------------------------------------+
 |  F1  |   21   |  first-order amplitude response (R1) vector          |
 +======================================================================+




 -------------------------------------------------------------------
 |          OUTPUT FROM AMPLITUDE RHS VECTOR SECTION               |
 -------------------------------------------------------------------



   For the requested  3 1th.-order amplitude rhs vectors "O1 ".
         -   0 D matrix transformations 
         -   0 C matrix transformations 
         -   0 B matrix transformations 
         -   0 C{O} matrix transformations 
         -   0 B{O} matrix transformations 
         -   0 A{O} matrix transformations 
         -   3Xi{O} vector calculations    
   will be performed.


 RPA: call cceq_str
 RPA: exit cceq_str
 RPA: call cceq_str
 RPA: exit cceq_str
 RPA: call cceq_str
 RPA: exit cceq_str
 RPA: call cceq_str
 RPA: exit cceq_str
 RPA: call cceq_str
 RPA: exit cceq_str
 RPA: call cceq_str
 RPA: exit cceq_str

 -------------------------------------------------------------------
 |          OUTPUT FROM AMPLITUDE RHS VECTOR SECTION               |
 -------------------------------------------------------------------



   For the requested 99 2th.-order amplitude rhs vectors "O2 ".
         -   0 D matrix transformations 
         -   0 C matrix transformations 
         -  99 B matrix transformations 
         -   0 C{O} matrix transformations 
         -   0 B{O} matrix transformations 
         - 198 A{O} matrix transformations 
         -   0Xi{O} vector calculations    
              (A{O} matrix included in B matrix)
   will be performed.


 +--------------------------------------------------+
 | total time for  99 B transforms.:      0.06 secs.|
 +==================================================+


 RPA: call cceq_str
 RPA: exit cceq_str
 RPA: call cceq_str
 RPA: exit cceq_str
 RPA: call cceq_str
 RPA: exit cceq_str
 RPA: call cceq_str
 RPA: exit cceq_str

 Solution of CC response equations completed.


 *******************************************************************
 *                                                                 *
 *--------  OUTPUT FROM COUPLED CLUSTER LINEAR RESPONSE   ---------*
 *                                                                 *
 *--------     CALCULATION OF SECOND ORDER PROPERTIES     ---------*
 *                                                                 *
 *******************************************************************

 


   For the requested  6 second-order properties
         -   6 F matrix transformations with R1 vectors
         -   0 J matrix transformations with L1 vectors
         -   3 ETA and XKSI vector calculations 
         -   0 X intermediate calculations 
         -   0 2. order reortho./relax. contributions
   will be performed.



 Time used for    6 F matrix transformations:        0.03 seconds.

 Time used for    3 O1/X1 vector calculation:        0.03 seconds.

 Total time for  18 linear response function:        0.06 seconds.


             +--------------------------------------------------------+
             !      FINAL CC2 RESULTS FOR THE SECOND-ORDER PROPERTIES !
             +--------------------------------------------------------+


  A operator                  B operator                     property 
------------------------------------------------------------------------

 XDIPLEN  (unrel.) -0.0000   XDIPLEN  (unrel.)  0.0000     0.47578794E-01
                   -0.0428                      0.0428     0.47968239E-01

 YDIPLEN  (unrel.) -0.0000   YDIPLEN  (unrel.)  0.0000      5.2406011    
                   -0.0428                      0.0428      5.2550610    

 ZDIPLEN  (unrel.) -0.0000   ZDIPLEN  (unrel.)  0.0000      2.0702925    
                   -0.0428                      0.0428      2.0755438    
------------------------------------------------------------------------



 *******************************************************************
 *                                                                 *
 *-------- OUTPUT FROM COUPLED CLUSTER QUADRATIC RESPONSE ---------*
 *                                                                 *
 *--------     CALCULATION OF CC HYPERPOLARIZABILITIES    ---------*
 *                                                                 *
 *******************************************************************



   For the requested 28 quadratic response functions 
         -  20 G matrix transformations 
         -  50 B matrix transformations 
         -   0 K matrix transformations 
         -   0 F matrix transformations 
         -  21 F{O} matrix transformations 
         -  35 ETA{O} vector calculations 
         -   0 Xksi{O2} x L1 and Eta{O2} x R1 dot products
         -   0 X1 x R2 dot products 
   will be performed.


 +--------------------------------------------------+
 | total time for  20 G transforms.:      0.02 secs.|
 +==================================================+



 Time used for   20 G matrix transformations:        0.02 seconds.
 +--------------------------------------------------+
 | total time for  50 B transforms.:      0.02 secs.|
 +==================================================+



 Time used for   50 B matrix transformations:        0.02 seconds.

 Time used for   21 F{O} matrix transform.:          0.01 seconds.

 Time used for   35 ETA{O} vector calculat.:         0.02 seconds.

 Time used for    0 Xksi{O} and Eta{O2} vector calculat.:         0.00 seconds.

 Total time for 108 quadratic response func.:        0.07 seconds.


                  +--------------------------------------------------------------------------------------+
                  !                FINAL CC2 RESULTS FOR THE FIRST HYPERPOLARIZABILITIES                 !
                  +--------------------------------------------------------------------------------------+


  A operator                  B operator                  C operator                     property 
------------------------------------------------------------------------------------------------------

 XDIPLEN  (unrel.) -0.0000   XDIPLEN  (unrel.)  0.0000   ZDIPLEN  (unrel.)  0.0000     0.73362405E-01
                   -0.0000                      0.0428                     -0.0428     0.74643356E-01
                   -0.0428                      0.0428                      0.0000     0.72835870E-01
                   -0.0856                      0.0428                      0.0428     0.73591588E-01

 XDIPLEN  (unrel.) -0.0000   ZDIPLEN  (unrel.)  0.0000   XDIPLEN  (unrel.)  0.0000     0.73362405E-01
                   -0.0000                      0.0428                     -0.0428     0.74643356E-01
                   -0.0428                      0.0428                      0.0000     0.74643356E-01
                   -0.0856                      0.0428                      0.0428     0.73591588E-01

 YDIPLEN  (unrel.) -0.0000   YDIPLEN  (unrel.)  0.0000   ZDIPLEN  (unrel.)  0.0000     -6.2425603    
                   -0.0000                      0.0428                     -0.0428     -6.2725682    
                   -0.0428                      0.0428                      0.0000     -6.2743216    
                   -0.0856                      0.0428                      0.0428     -6.3368746    

 YDIPLEN  (unrel.) -0.0000   ZDIPLEN  (unrel.)  0.0000   YDIPLEN  (unrel.)  0.0000     -6.2425603    
                   -0.0000                      0.0428                     -0.0428     -6.2725682    
                   -0.0428                      0.0428                      0.0000     -6.2725682    
                   -0.0856                      0.0428                      0.0428     -6.3368746    

 ZDIPLEN  (unrel.) -0.0000   XDIPLEN  (unrel.)  0.0000   XDIPLEN  (unrel.)  0.0000     0.73362405E-01
                   -0.0000                      0.0428                     -0.0428     0.72835870E-01
                   -0.0428                      0.0428                      0.0000     0.74643356E-01
                   -0.0856                      0.0428                      0.0428     0.79088803E-01

 ZDIPLEN  (unrel.) -0.0000   YDIPLEN  (unrel.)  0.0000   YDIPLEN  (unrel.)  0.0000     -6.2425603    
                   -0.0000                      0.0428                     -0.0428     -6.2743216    
                   -0.0428                      0.0428                      0.0000     -6.2725682    
                   -0.0856                      0.0428                      0.0428     -6.3317653    

 ZDIPLEN  (unrel.) -0.0000   ZDIPLEN  (unrel.)  0.0000   ZDIPLEN  (unrel.)  0.0000     -3.5753523    
                   -0.0000                      0.0428                     -0.0428     -3.6009693    
                   -0.0428                      0.0428                      0.0000     -3.6009693    
                   -0.0856                      0.0428                      0.0428     -3.6532260    


------------------------------------------------------------------------------------------------------




 *******************************************************************
 *                                                                 *
 *----------  OUTPUT FROM COUPLED CLUSTER CUBIC RESPONSE   ---------*
 *                                                                 *
 *--------     CALCULATION OF CC HYPERPOLARIZABILITIES    ---------*
 *                                                                 *
 *******************************************************************



   For the requested 105 cubic response functions 
         -  81 H^0 matrix transformations 
         -  99 G^0 matrix transformations 
         - 240 G^A matrix transformations 
         -  77 F^0 matrix transformations 
         - 189 F^A matrix transformations 
         -  63 F^0{O} matrix transformations 
         - 273 F^A{O} matrix transformations 
         -  63 ETA^A{O} vector calculations 
   will be performed.



 Time used for   81 H matrix transformations:           0.01 seconds.
 +--------------------------------------------------+
 | total time for  99 G transforms.:      0.03 secs.|
 +==================================================+


 +--------------------------------------------------+
 | total time for 100 G transforms.:      0.03 secs.|
 +==================================================+


 +--------------------------------------------------+
 | total time for 100 G transforms.:      0.03 secs.|
 +==================================================+


 +--------------------------------------------------+
 | total time for  40 G transforms.:      0.02 secs.|
 +==================================================+



 Time used for  339 G matrix transformations:           0.10 seconds.

 Time used for  266 F matrix transformations:           0.11 seconds.

 Time used for  336 F{O} matrix transformations:        0.06 seconds.

 Time used for   63 ETA{O} vector calculations :        0.03 seconds.

 Total time for 405 cubic response functions:           0.34 seconds.


        +------------------------------------------------------------------+
        !           FINAL CC2 RESULTS FOR THE SECOND HYPERPOLARIZABILITIES !
        +------------------------------------------------------------------+


  A operator        B operator        C operator        D operator           gamma
--------------------------------------------------------------------------------------

 XDIPLEN -0.0000   XDIPLEN  0.0000   XDIPLEN  0.0000   XDIPLEN  0.0000    -0.35140319    
         -0.0428            0.0000            0.0000            0.0428    -0.35619265    
         -0.0856            0.0428            0.0428            0.0000    -0.36612560    
         -0.0428            0.0428            0.0428           -0.0428    -0.36104365    
         -0.1285            0.0428            0.0428            0.0428    -0.38216217    

 XDIPLEN -0.0000   XDIPLEN  0.0000   YDIPLEN  0.0000   YDIPLEN  0.0000      1.1274301    
         -0.0428            0.0000            0.0000            0.0428      1.1416126    
         -0.0856            0.0428            0.0428            0.0000      1.1545382    
         -0.0428            0.0428            0.0428           -0.0428      1.1376909    
         -0.1285            0.0428            0.0428            0.0428      1.2035000    

 XDIPLEN -0.0000   XDIPLEN  0.0000   ZDIPLEN  0.0000   ZDIPLEN  0.0000     0.82086568    
         -0.0428            0.0000            0.0000            0.0428     0.83424198    
         -0.0856            0.0428            0.0428            0.0000     0.84796537    
         -0.0428            0.0428            0.0428           -0.0428     0.82993971    
         -0.1285            0.0428            0.0428            0.0428     0.89667405    

 XDIPLEN -0.0000   YDIPLEN  0.0000   XDIPLEN  0.0000   YDIPLEN  0.0000      1.1274301    
         -0.0428            0.0000            0.0000            0.0428      1.1416126    
         -0.0856            0.0428            0.0428            0.0000      1.1545382    
         -0.0428            0.0428            0.0428           -0.0428      1.1376909    
         -0.1285            0.0428            0.0428            0.0428      1.2035000    

 XDIPLEN -0.0000   YDIPLEN  0.0000   YDIPLEN  0.0000   XDIPLEN  0.0000      1.1274301    
         -0.0428            0.0000            0.0000            0.0428      1.1336455    
         -0.0856            0.0428            0.0428            0.0000      1.1816057    
         -0.0428            0.0428            0.0428           -0.0428      1.1742154    
         -0.1285            0.0428            0.0428            0.0428      1.2035000    

 XDIPLEN -0.0000   ZDIPLEN  0.0000   XDIPLEN  0.0000   ZDIPLEN  0.0000     0.82086568    
         -0.0428            0.0000            0.0000            0.0428     0.83424198    
         -0.0856            0.0428            0.0428            0.0000     0.84796537    
         -0.0428            0.0428            0.0428           -0.0428     0.82993971    
         -0.1285            0.0428            0.0428            0.0428     0.89667405    

 XDIPLEN -0.0000   ZDIPLEN  0.0000   ZDIPLEN  0.0000   XDIPLEN  0.0000     0.82086568    
         -0.0428            0.0000            0.0000            0.0428     0.82741682    
         -0.0856            0.0428            0.0428            0.0000     0.87341179    
         -0.0428            0.0428            0.0428           -0.0428     0.86568748    
         -0.1285            0.0428            0.0428            0.0428     0.89667405    

 YDIPLEN -0.0000   XDIPLEN  0.0000   XDIPLEN  0.0000   YDIPLEN  0.0000      1.1274301    
         -0.0428            0.0000            0.0000            0.0428      1.1314253    
         -0.0856            0.0428            0.0428            0.0000      1.1785932    
         -0.0428            0.0428            0.0428           -0.0428      1.1742154    
         -0.1285            0.0428            0.0428            0.0428      1.1918407    

 YDIPLEN -0.0000   XDIPLEN  0.0000   YDIPLEN  0.0000   XDIPLEN  0.0000      1.1274301    
         -0.0428            0.0000            0.0000            0.0428      1.1416126    
         -0.0856            0.0428            0.0428            0.0000      1.1498414    
         -0.0428            0.0428            0.0428           -0.0428      1.1376909    
         -0.1285            0.0428            0.0428            0.0428      1.1918407    

 YDIPLEN -0.0000   YDIPLEN  0.0000   XDIPLEN  0.0000   XDIPLEN  0.0000      1.1274301    
         -0.0428            0.0000            0.0000            0.0428      1.1416126    
         -0.0856            0.0428            0.0428            0.0000      1.1498414    
         -0.0428            0.0428            0.0428           -0.0428      1.1376909    
         -0.1285            0.0428            0.0428            0.0428      1.1918407    

 YDIPLEN -0.0000   YDIPLEN  0.0000   YDIPLEN  0.0000   YDIPLEN  0.0000      9.9334107    
         -0.0428            0.0000            0.0000            0.0428      9.9015154    
         -0.0856            0.0428            0.0428            0.0000      9.8339885    
         -0.0428            0.0428            0.0428           -0.0428      9.8665728    
         -0.1285            0.0428            0.0428            0.0428      9.7285772    

 YDIPLEN -0.0000   YDIPLEN  0.0000   ZDIPLEN  0.0000   ZDIPLEN  0.0000     -4.1923627    
         -0.0428            0.0000            0.0000            0.0428     -4.2800778    
         -0.0856            0.0428            0.0428            0.0000     -4.4013198    
         -0.0428            0.0428            0.0428           -0.0428     -4.3035388    
         -0.1285            0.0428            0.0428            0.0428     -4.6873161    

 YDIPLEN -0.0000   ZDIPLEN  0.0000   YDIPLEN  0.0000   ZDIPLEN  0.0000     -4.1923627    
         -0.0428            0.0000            0.0000            0.0428     -4.2800778    
         -0.0856            0.0428            0.0428            0.0000     -4.4013198    
         -0.0428            0.0428            0.0428           -0.0428     -4.3035388    
         -0.1285            0.0428            0.0428            0.0428     -4.6873161    

 YDIPLEN -0.0000   ZDIPLEN  0.0000   ZDIPLEN  0.0000   YDIPLEN  0.0000     -4.1923627    
         -0.0428            0.0000            0.0000            0.0428     -4.2515414    
         -0.0856            0.0428            0.0428            0.0000     -4.4984231    
         -0.0428            0.0428            0.0428           -0.0428     -4.4372222    
         -0.1285            0.0428            0.0428            0.0428     -4.6873161    

 ZDIPLEN -0.0000   XDIPLEN  0.0000   XDIPLEN  0.0000   ZDIPLEN  0.0000     0.82086568    
         -0.0428            0.0000            0.0000            0.0428     0.82326124    
         -0.0856            0.0428            0.0428            0.0000     0.86867186    
         -0.0428            0.0428            0.0428           -0.0428     0.86568748    
         -0.1285            0.0428            0.0428            0.0428     0.87732342    

 ZDIPLEN -0.0000   XDIPLEN  0.0000   ZDIPLEN  0.0000   XDIPLEN  0.0000     0.82086568    
         -0.0428            0.0000            0.0000            0.0428     0.83424198    
         -0.0856            0.0428            0.0428            0.0000     0.83930296    
         -0.0428            0.0428            0.0428           -0.0428     0.82993971    
         -0.1285            0.0428            0.0428            0.0428     0.87732342    

 ZDIPLEN -0.0000   YDIPLEN  0.0000   YDIPLEN  0.0000   ZDIPLEN  0.0000     -4.1923627    
         -0.0428            0.0000            0.0000            0.0428     -4.2431310    
         -0.0856            0.0428            0.0428            0.0000     -4.4907652    
         -0.0428            0.0428            0.0428           -0.0428     -4.4372222    
         -0.1285            0.0428            0.0428            0.0428     -4.6569861    

 ZDIPLEN -0.0000   YDIPLEN  0.0000   ZDIPLEN  0.0000   YDIPLEN  0.0000     -4.1923627    
         -0.0428            0.0000            0.0000            0.0428     -4.2800778    
         -0.0856            0.0428            0.0428            0.0000     -4.3849034    
         -0.0428            0.0428            0.0428           -0.0428     -4.3035388    
         -0.1285            0.0428            0.0428            0.0428     -4.6569861    

 ZDIPLEN -0.0000   ZDIPLEN  0.0000   XDIPLEN  0.0000   XDIPLEN  0.0000     0.82086568    
         -0.0428            0.0000            0.0000            0.0428     0.83424198    
         -0.0856            0.0428            0.0428            0.0000     0.83930296    
         -0.0428            0.0428            0.0428           -0.0428     0.82993971    
         -0.1285            0.0428            0.0428            0.0428     0.87732342    

 ZDIPLEN -0.0000   ZDIPLEN  0.0000   YDIPLEN  0.0000   YDIPLEN  0.0000     -4.1923627    
         -0.0428            0.0000            0.0000            0.0428     -4.2800778    
         -0.0856            0.0428            0.0428            0.0000     -4.3849034    
         -0.0428            0.0428            0.0428           -0.0428     -4.3035388    
         -0.1285            0.0428            0.0428            0.0428     -4.6569861    

 ZDIPLEN -0.0000   ZDIPLEN  0.0000   ZDIPLEN  0.0000   ZDIPLEN  0.0000     -16.059781    
         -0.0428            0.0000            0.0000            0.0428     -16.263987    
         -0.0856            0.0428            0.0428            0.0000     -16.683950    
         -0.0428            0.0428            0.0428           -0.0428     -16.473112    
         -0.1285            0.0428            0.0428            0.0428     -17.340792    
--------------------------------------------------------------------------------------
---------------------------------------------------------------------------
  

 *******************************************************************************
 *******************************************************************************
 *                                                                             *
 *                                                                             *
 *                   SUMMARY OF COUPLED CLUSTER CALCULATION                    *
 *                                                                             *
 *                                                                             *
 *******************************************************************************
 *******************************************************************************

                                                                                
                                                                                
            Total SCF   energy:                   -74.9625300843                
            Total MP2   energy:                   -74.9979420965                
            Total CC2   energy:                   -74.9980678943                
  

 *******************************************************************************
 *******************************************************************************
 *                                                                             *
 *                                                                             *
 *                      END OF COUPLED CLUSTER CALCULATION                     *
 *                                                                             *
 *                                                                             *
 *******************************************************************************
 *******************************************************************************


 CPU and wall time for CC :       5.247       5.657

 
     Date and time (Linux)  : Sat Aug 26 21:28:47 2017
     Host name              : chim13-cptrx04.chimie.fundp.ac.be       


                      .-------------------------------------.
                      | End of Coupled Cluster Section (CC) |
                      `-------------------------------------'



                 .------------------------------------------------.
                 | Starting in Dynamic Property Section (RESPONS) |
                 `------------------------------------------------'


 ------------------------------------------------------------------------------
  RESPONSE  -  an MCSCF, MC-srDFT, DFT, and SOPPA response property program
 ------------------------------------------------------------------------------


 -------- OUTPUT FROM RESPONSE INPUT PROCESSING --------




                     ***************************************
                     *** RHF response calculation (TDHF) ***
                     ***************************************


  Total CPU  time used in RESPONSE:   0.00 seconds
  Total wall time used in RESPONSE:   0.00 seconds


                   .-------------------------------------------.
                   | End of Dynamic Property Section (RESPONS) |
                   `-------------------------------------------'

  Total CPU  time used in DALTON:   5.27 seconds
  Total wall time used in DALTON:   5.70 seconds

 
     Date and time (Linux)  : Sat Aug 26 21:28:47 2017
     Host name              : chim13-cptrx04.chimie.fundp.ac.be       
