 Entering Gaussian System, Link 0=g16
 Input=output_gaussian_gamma.com
 Output=output_gaussian_gamma.log
 Initial command:
 /usr/local/gaussian/G16/A03/g16/l1.exe "/scratch/996414/Gau-17028.inp" -scrdir="/scratch/996414/"
 Entering Link 1 = /usr/local/gaussian/G16/A03/g16/l1.exe PID=     17029.
  
 Copyright (c) 1988,1990,1992,1993,1995,1998,2003,2009,2016,
            Gaussian, Inc.  All Rights Reserved.
  
 This is part of the Gaussian(R) 16 program.  It is based on
 the Gaussian(R) 09 system (copyright 2009, Gaussian, Inc.),
 the Gaussian(R) 03 system (copyright 2003, Gaussian, Inc.),
 the Gaussian(R) 98 system (copyright 1998, Gaussian, Inc.),
 the Gaussian(R) 94 system (copyright 1995, Gaussian, Inc.),
 the Gaussian 92(TM) system (copyright 1992, Gaussian, Inc.),
 the Gaussian 90(TM) system (copyright 1990, Gaussian, Inc.),
 the Gaussian 88(TM) system (copyright 1988, Gaussian, Inc.),
 the Gaussian 86(TM) system (copyright 1986, Carnegie Mellon
 University), and the Gaussian 82(TM) system (copyright 1983,
 Carnegie Mellon University). Gaussian is a federally registered
 trademark of Gaussian, Inc.
  
 This software contains proprietary and confidential information,
 including trade secrets, belonging to Gaussian, Inc.
  
 This software is provided under written license and may be
 used, copied, transmitted, or stored only in accord with that
 written license.
  
 The following legend is applicable only to US Government
 contracts under FAR:
  
                    RESTRICTED RIGHTS LEGEND
  
 Use, reproduction and disclosure by the US Government is
 subject to restrictions as set forth in subparagraphs (a)
 and (c) of the Commercial Computer Software - Restricted
 Rights clause in FAR 52.227-19.
  
 Gaussian, Inc.
 340 Quinnipiac St., Bldg. 40, Wallingford CT 06492
  
  
 ---------------------------------------------------------------
 Warning -- This program may not be used in any manner that
 competes with the business of Gaussian, Inc. or will provide
 assistance to any competitor of Gaussian, Inc.  The licensee
 of this program is prohibited from giving any competitor of
 Gaussian, Inc. access to this program.  By using this program,
 the user acknowledges that Gaussian, Inc. is engaged in the
 business of creating and licensing software in the field of
 computational chemistry and represents and warrants to the
 licensee that it is not a competitor of Gaussian, Inc. and that
 it will not use this program in any manner prohibited above.
 ---------------------------------------------------------------
  

 Cite this work as:
 Gaussian 16, Revision A.03,
 M. J. Frisch, G. W. Trucks, H. B. Schlegel, G. E. Scuseria, 
 M. A. Robb, J. R. Cheeseman, G. Scalmani, V. Barone, 
 G. A. Petersson, H. Nakatsuji, X. Li, M. Caricato, A. V. Marenich, 
 J. Bloino, B. G. Janesko, R. Gomperts, B. Mennucci, H. P. Hratchian, 
 J. V. Ortiz, A. F. Izmaylov, J. L. Sonnenberg, D. Williams-Young, 
 F. Ding, F. Lipparini, F. Egidi, J. Goings, B. Peng, A. Petrone, 
 T. Henderson, D. Ranasinghe, V. G. Zakrzewski, J. Gao, N. Rega, 
 G. Zheng, W. Liang, M. Hada, M. Ehara, K. Toyota, R. Fukuda, 
 J. Hasegawa, M. Ishida, T. Nakajima, Y. Honda, O. Kitao, H. Nakai, 
 T. Vreven, K. Throssell, J. A. Montgomery, Jr., J. E. Peralta, 
 F. Ogliaro, M. J. Bearpark, J. J. Heyd, E. N. Brothers, K. N. Kudin, 
 V. N. Staroverov, T. A. Keith, R. Kobayashi, J. Normand, 
 K. Raghavachari, A. P. Rendell, J. C. Burant, S. S. Iyengar, 
 J. Tomasi, M. Cossi, J. M. Millam, M. Klene, C. Adamo, R. Cammi, 
 J. W. Ochterski, R. L. Martin, K. Morokuma, O. Farkas, 
 J. B. Foresman, and D. J. Fox, Gaussian, Inc., Wallingford CT, 2016.
 
 ******************************************
 Gaussian 16:  ES64L-G16RevA.03 25-Dec-2016
                30-Jan-2019 
 ******************************************
 %chk=output_gaussian_gamma
 %mem=3GB
 %nprocshared=4
 Will use up to    4 processors via shared memory.
 --------------------------------------------------
 #p polar=(DCSHG,Cubic) cphf=rdfreq hf/STO-3G nosym
 --------------------------------------------------
 1/30=1,38=101,83=1,84=49,172=1/1,6;
 2/12=2,15=1,17=6,18=5,40=1/2;
 3/6=3,11=9,25=1,30=1/1,2,3;
 4/69=2/1;
 5/5=2,38=5,98=1/2;
 8/6=4,10=90,11=11/1;
 10/6=20001,13=10,31=1,60=-2,72=3/2;
 6/7=2,8=2,9=2,10=2,12=2,28=1/1;
 1/38=100,84=49/6(1);
 99/9=1/99;
 3/6=3,11=9,14=-3,25=1,30=1/1,2,3;
 4/5=5,16=3,69=2/1;
 5/5=2,38=5,98=1/2;
 8/6=4,10=90,11=11/1;
 10/6=20001,13=10,31=1,60=-2,72=3/2;
 6/7=2,8=2,9=2,10=2,12=2,28=1/1;
 1/38=100,84=49/6(-6);
 99/9=1/99;
 Leave Link    1 at Wed Jan 30 15:52:23 2019, MaxMem=   402653184 cpu:               0.2 elap:               0.0
 (Enter /usr/local/gaussian/G16/A03/g16/l101.exe)
 -
 m
 -
 Symbolic Z-matrix:
 Charge =  0 Multiplicity = 1
 C                    -5.44352  -0.59833  -0.24712 
 O                    -4.11804  -0.20642  -0.53738 
 H                    -6.11708  -0.13602  -0.99743 
 H                    -5.73762  -0.22877   0.75852 
 H                    -5.60407  -1.69809  -0.32394 
 C                    -3.19378  -1.14703  -0.03061 
 F                    -3.45707  -1.46637   1.29424 
 F                    -1.92968  -0.59266  -0.09014 
 F                    -3.20281  -2.2937   -0.8072 
 
 ITRead=  0  0  0  0  0  0  0  0  0
 MicOpt= -1 -1 -1 -1 -1 -1 -1 -1 -1
 NAtoms=      9 NQM=        9 NQMF=       0 NMMI=      0 NMMIF=      0
                NMic=       0 NMicF=      0.
                    Isotopes and Nuclear Properties:
 (Nuclear quadrupole moments (NQMom) in fm**2, nuclear magnetic moments (NMagM)
  in nuclear magnetons)

  Atom         1           2           3           4           5           6           7           8           9
 IAtWgt=          12          16           1           1           1          12          19          19          19
 AtmWgt=  12.0000000  15.9949146   1.0078250   1.0078250   1.0078250  12.0000000  18.9984033  18.9984033  18.9984033
 NucSpn=           0           0           1           1           1           0           1           1           1
 AtZEff=  -0.0000000  -0.0000000  -0.0000000  -0.0000000  -0.0000000  -0.0000000  -0.0000000  -0.0000000  -0.0000000
 NQMom=    0.0000000   0.0000000   0.0000000   0.0000000   0.0000000   0.0000000   0.0000000   0.0000000   0.0000000
 NMagM=    0.0000000   0.0000000   2.7928460   2.7928460   2.7928460   0.0000000   2.6288670   2.6288670   2.6288670
 AtZNuc=   6.0000000   8.0000000   1.0000000   1.0000000   1.0000000   6.0000000   9.0000000   9.0000000   9.0000000
 Using perturbation frequencies:    0.000000    0.023893    0.042823
 Leave Link  101 at Wed Jan 30 15:52:24 2019, MaxMem=   402653184 cpu:               0.3 elap:               0.1
 (Enter /usr/local/gaussian/G16/A03/g16/l106.exe)
 Differentiate once with respect to electric field.
 Nuclear step= 0.001000 Angstroms, electric field step= 0.000333 atomic units, NStep=1.
 Leave Link  106 at Wed Jan 30 15:52:24 2019, MaxMem=   402653184 cpu:               0.0 elap:               0.0
 (Enter /usr/local/gaussian/G16/A03/g16/l202.exe)
                          Input orientation:                          
 ---------------------------------------------------------------------
 Center     Atomic      Atomic             Coordinates (Angstroms)
 Number     Number       Type             X           Y           Z
 ---------------------------------------------------------------------
      1          6           0       -5.443520   -0.598330   -0.247120
      2          8           0       -4.118040   -0.206420   -0.537380
      3          1           0       -6.117080   -0.136020   -0.997430
      4          1           0       -5.737620   -0.228770    0.758520
      5          1           0       -5.604070   -1.698090   -0.323940
      6          6           0       -3.193780   -1.147030   -0.030610
      7          9           0       -3.457070   -1.466370    1.294240
      8          9           0       -1.929680   -0.592660   -0.090140
      9          9           0       -3.202810   -2.293700   -0.807200
 ---------------------------------------------------------------------
                    Distance matrix (angstroms):
                    1          2          3          4          5
     1  C    0.000000
     2  O    1.412353   0.000000
     3  H    1.109224   2.052502   0.000000
     4  H    1.111027   2.074342   1.798875   0.000000
     5  H    1.114069   2.116346   1.776747   1.829879   0.000000
     6  C    2.325786   1.412735   3.240766   2.817277   2.489821
     7  F    2.659938   2.319307   3.754629   2.649445   2.698483
     8  F    3.517349   2.266743   4.308830   3.918296   3.844188
     9  F    2.865092   2.295035   3.631080   3.625007   2.520782
                    6          7          8          9
     6  C    0.000000
     7  F    1.387994   0.000000
     8  F    1.381600   2.238928   0.000000
     9  F    1.384928   2.272702   2.242448   0.000000
 Symmetry turned off by external request.
 Stoichiometry    C2H3F3O
 Framework group  C1[X(C2H3F3O)]
 Deg. of freedom    21
 Full point group                 C1      NOp   1
 Rotational constants (GHZ):           5.0884824           2.9679725           2.9287258
 Leave Link  202 at Wed Jan 30 15:52:24 2019, MaxMem=   402653184 cpu:               0.0 elap:               0.0
 (Enter /usr/local/gaussian/G16/A03/g16/l301.exe)
 Standard basis: STO-3G (5D, 7F)
 Ernie: Thresh=  0.10000D-02 Tol=  0.10000D-05 Strict=F.
    33 basis functions,    99 primitive gaussians,    33 cartesian basis functions
    25 alpha electrons       25 beta electrons
       nuclear repulsion energy       273.6991576226 Hartrees.
 IExCor=    0 DFT=F Ex=HF Corr=None ExCW=0 ScaHFX=  1.000000
 ScaDFX=  1.000000  1.000000  1.000000  1.000000 ScalE2=  1.000000  1.000000
 IRadAn=      5 IRanWt=     -1 IRanGd=            0 ICorTp=0 IEmpDi=  4
 NAtoms=    9 NActive=    9 NUniq=    9 SFac= 1.00D+00 NAtFMM=   60 NAOKFM=F Big=F
 Integral buffers will be    131072 words long.
 Raffenetti 1 integral format.
 Two-electron integral symmetry is turned off.
 Leave Link  301 at Wed Jan 30 15:52:24 2019, MaxMem=   402653184 cpu:               0.2 elap:               0.1
 (Enter /usr/local/gaussian/G16/A03/g16/l302.exe)
 NPDir=0 NMtPBC=     1 NCelOv=     1 NCel=       1 NClECP=     1 NCelD=      1
         NCelK=      1 NCelE2=     1 NClLst=     1 CellRange=     0.0.
 One-electron integrals computed using PRISM.
 NBasis=    33 RedAO= T EigKep=  2.41D-01  NBF=    33
 NBsUse=    33 1.00D-06 EigRej= -1.00D+00 NBFU=    33
 Leave Link  302 at Wed Jan 30 15:52:24 2019, MaxMem=   402653184 cpu:               0.3 elap:               0.1
 (Enter /usr/local/gaussian/G16/A03/g16/l303.exe)
 DipDrv:  MaxL=1.
 Leave Link  303 at Wed Jan 30 15:52:24 2019, MaxMem=   402653184 cpu:               0.1 elap:               0.0
 (Enter /usr/local/gaussian/G16/A03/g16/l401.exe)
 ExpMin= 1.69D-01 ExpMax= 1.67D+02 ExpMxC= 1.67D+02 IAcc=3 IRadAn=         5 AccDes= 0.00D+00
 Harris functional with IExCor=  205 and IRadAn=       5 diagonalized for initial guess.
 HarFok:  IExCor=  205 AccDes= 0.00D+00 IRadAn=         5 IDoV= 1 UseB2=F ITyADJ=14
 ICtDFT=  3500011 ScaDFX=  1.000000  1.000000  1.000000  1.000000
 FoFCou: FMM=F IPFlag=           0 FMFlag=      100000 FMFlg1=           0
         NFxFlg=           0 DoJE=T BraDBF=F KetDBF=T FulRan=T
         wScrn=  0.000000 ICntrl=       500 IOpCl=  0 I1Cent=   200000004 NGrid=           0
         NMat0=    1 NMatS0=      1 NMatT0=    0 NMatD0=    1 NMtDS0=    0 NMtDT0=    0
 Symmetry not used in FoFCou.
 Harris En= -444.455017877049    
 JPrj=0 DoOrth=F DoCkMO=F.
 Leave Link  401 at Wed Jan 30 15:52:24 2019, MaxMem=   402653184 cpu:               1.1 elap:               0.3
 (Enter /usr/local/gaussian/G16/A03/g16/l502.exe)
 Keep R1 ints in memory in canonical form, NReq=973179.
 FoFCou: FMM=F IPFlag=           0 FMFlag=           0 FMFlg1=           0
         NFxFlg=           0 DoJE=F BraDBF=F KetDBF=F FulRan=T
         wScrn=  0.000000 ICntrl=       600 IOpCl=  0 I1Cent=           0 NGrid=           0
         NMat0=    1 NMatS0=    561 NMatT0=    0 NMatD0=    1 NMtDS0=    0 NMtDT0=    0
 Symmetry not used in FoFCou.
 Two-electron integral symmetry not used.
 Closed shell SCF:
 Using DIIS extrapolation, IDIIS=  1040.
 NGot=   402653184 LenX=   402492551 LenY=   402491021
 Requested convergence on RMS density matrix=1.00D-08 within 128 cycles.
 Requested convergence on MAX density matrix=1.00D-06.
 Requested convergence on             energy=1.00D-06.
 No special actions if energy rises.

 Cycle   1  Pass 1  IDiag  1:
 E= -444.468273062168    
 DIIS: error= 5.98D-02 at cycle   1 NSaved=   1.
 NSaved= 1 IEnMin= 1 EnMin= -444.468273062168     IErMin= 1 ErrMin= 5.98D-02
 ErrMax= 5.98D-02  0.00D+00 EMaxC= 1.00D-01 BMatC= 6.62D-02 BMatP= 6.62D-02
 IDIUse=3 WtCom= 4.02D-01 WtEn= 5.98D-01
 Coeff-Com:  0.100D+01
 Coeff-En:   0.100D+01
 Coeff:      0.100D+01
 Gap=     0.944 Goal=   None    Shift=    0.000
 GapD=    0.944 DampG=2.000 DampE=0.500 DampFc=1.0000 IDamp=-1.
 RMSDP=9.87D-03 MaxDP=8.14D-02              OVMax= 0.00D+00

 Cycle   2  Pass 1  IDiag  1:
 E= -444.530015388058     Delta-E=       -0.061742325890 Rises=F Damp=F
 DIIS: error= 7.17D-03 at cycle   2 NSaved=   2.
 NSaved= 2 IEnMin= 2 EnMin= -444.530015388058     IErMin= 2 ErrMin= 7.17D-03
 ErrMax= 7.17D-03  0.00D+00 EMaxC= 1.00D-01 BMatC= 2.92D-03 BMatP= 6.62D-02
 IDIUse=3 WtCom= 9.28D-01 WtEn= 7.17D-02
 Coeff-Com:  0.631D-01 0.937D+00
 Coeff-En:   0.000D+00 0.100D+01
 Coeff:      0.586D-01 0.941D+00
 Gap=     0.924 Goal=   None    Shift=    0.000
 RMSDP=2.54D-03 MaxDP=1.58D-02 DE=-6.17D-02 OVMax= 0.00D+00

 Cycle   3  Pass 1  IDiag  1:
 E= -444.534959273615     Delta-E=       -0.004943885557 Rises=F Damp=F
 DIIS: error= 2.29D-03 at cycle   3 NSaved=   3.
 NSaved= 3 IEnMin= 3 EnMin= -444.534959273615     IErMin= 3 ErrMin= 2.29D-03
 ErrMax= 2.29D-03  0.00D+00 EMaxC= 1.00D-01 BMatC= 2.72D-04 BMatP= 2.92D-03
 IDIUse=3 WtCom= 9.77D-01 WtEn= 2.29D-02
 Coeff-Com: -0.398D-01-0.659D-01 0.111D+01
 Coeff-En:   0.000D+00 0.000D+00 0.100D+01
 Coeff:     -0.389D-01-0.644D-01 0.110D+01
 Gap=     0.904 Goal=   None    Shift=    0.000
 RMSDP=1.10D-03 MaxDP=7.47D-03 DE=-4.94D-03 OVMax= 0.00D+00

 Cycle   4  Pass 1  IDiag  1:
 E= -444.535647125080     Delta-E=       -0.000687851464 Rises=F Damp=F
 DIIS: error= 6.62D-04 at cycle   4 NSaved=   4.
 NSaved= 4 IEnMin= 4 EnMin= -444.535647125080     IErMin= 4 ErrMin= 6.62D-04
 ErrMax= 6.62D-04  0.00D+00 EMaxC= 1.00D-01 BMatC= 1.93D-05 BMatP= 2.72D-04
 IDIUse=3 WtCom= 9.93D-01 WtEn= 6.62D-03
 Coeff-Com:  0.343D-02-0.576D-01-0.180D+00 0.123D+01
 Coeff-En:   0.000D+00 0.000D+00 0.000D+00 0.100D+01
 Coeff:      0.341D-02-0.572D-01-0.179D+00 0.123D+01
 Gap=     0.906 Goal=   None    Shift=    0.000
 RMSDP=3.70D-04 MaxDP=2.14D-03 DE=-6.88D-04 OVMax= 0.00D+00

 Cycle   5  Pass 1  IDiag  1:
 E= -444.535700375005     Delta-E=       -0.000053249925 Rises=F Damp=F
 DIIS: error= 5.17D-05 at cycle   5 NSaved=   5.
 NSaved= 5 IEnMin= 5 EnMin= -444.535700375005     IErMin= 5 ErrMin= 5.17D-05
 ErrMax= 5.17D-05  0.00D+00 EMaxC= 1.00D-01 BMatC= 2.30D-07 BMatP= 1.93D-05
 IDIUse=1 WtCom= 1.00D+00 WtEn= 0.00D+00
 Coeff-Com:  0.102D-02-0.610D-02-0.397D-01 0.132D+00 0.913D+00
 Coeff:      0.102D-02-0.610D-02-0.397D-01 0.132D+00 0.913D+00
 Gap=     0.906 Goal=   None    Shift=    0.000
 RMSDP=2.82D-05 MaxDP=1.98D-04 DE=-5.32D-05 OVMax= 0.00D+00

 Cycle   6  Pass 1  IDiag  1:
 E= -444.535700822038     Delta-E=       -0.000000447033 Rises=F Damp=F
 DIIS: error= 1.43D-05 at cycle   6 NSaved=   6.
 NSaved= 6 IEnMin= 6 EnMin= -444.535700822038     IErMin= 6 ErrMin= 1.43D-05
 ErrMax= 1.43D-05  0.00D+00 EMaxC= 1.00D-01 BMatC= 1.20D-08 BMatP= 2.30D-07
 IDIUse=1 WtCom= 1.00D+00 WtEn= 0.00D+00
 Coeff-Com: -0.402D-03 0.346D-02 0.178D-01-0.758D-01-0.290D+00 0.135D+01
 Coeff:     -0.402D-03 0.346D-02 0.178D-01-0.758D-01-0.290D+00 0.135D+01
 Gap=     0.906 Goal=   None    Shift=    0.000
 RMSDP=7.85D-06 MaxDP=5.30D-05 DE=-4.47D-07 OVMax= 0.00D+00

 Cycle   7  Pass 1  IDiag  1:
 E= -444.535700853146     Delta-E=       -0.000000031108 Rises=F Damp=F
 DIIS: error= 3.00D-06 at cycle   7 NSaved=   7.
 NSaved= 7 IEnMin= 7 EnMin= -444.535700853146     IErMin= 7 ErrMin= 3.00D-06
 ErrMax= 3.00D-06  0.00D+00 EMaxC= 1.00D-01 BMatC= 5.40D-10 BMatP= 1.20D-08
 IDIUse=1 WtCom= 1.00D+00 WtEn= 0.00D+00
 Coeff-Com:  0.692D-05-0.142D-03-0.750D-03 0.422D-02-0.377D-02-0.140D+00
 Coeff-Com:  0.114D+01
 Coeff:      0.692D-05-0.142D-03-0.750D-03 0.422D-02-0.377D-02-0.140D+00
 Coeff:      0.114D+01
 Gap=     0.906 Goal=   None    Shift=    0.000
 RMSDP=1.67D-06 MaxDP=1.15D-05 DE=-3.11D-08 OVMax= 0.00D+00

 Cycle   8  Pass 1  IDiag  1:
 E= -444.535700854602     Delta-E=       -0.000000001457 Rises=F Damp=F
 DIIS: error= 1.33D-06 at cycle   8 NSaved=   8.
 NSaved= 8 IEnMin= 8 EnMin= -444.535700854602     IErMin= 8 ErrMin= 1.33D-06
 ErrMax= 1.33D-06  0.00D+00 EMaxC= 1.00D-01 BMatC= 4.96D-11 BMatP= 5.40D-10
 IDIUse=1 WtCom= 1.00D+00 WtEn= 0.00D+00
 Coeff-Com:  0.403D-04-0.354D-03-0.180D-02 0.766D-02 0.312D-01-0.134D+00
 Coeff-Com: -0.852D-01 0.118D+01
 Coeff:      0.403D-04-0.354D-03-0.180D-02 0.766D-02 0.312D-01-0.134D+00
 Coeff:     -0.852D-01 0.118D+01
 Gap=     0.906 Goal=   None    Shift=    0.000
 RMSDP=6.13D-07 MaxDP=4.92D-06 DE=-1.46D-09 OVMax= 0.00D+00

 Cycle   9  Pass 1  IDiag  1:
 E= -444.535700854745     Delta-E=       -0.000000000142 Rises=F Damp=F
 DIIS: error= 2.82D-07 at cycle   9 NSaved=   9.
 NSaved= 9 IEnMin= 9 EnMin= -444.535700854745     IErMin= 9 ErrMin= 2.82D-07
 ErrMax= 2.82D-07  0.00D+00 EMaxC= 1.00D-01 BMatC= 1.66D-12 BMatP= 4.96D-11
 IDIUse=1 WtCom= 1.00D+00 WtEn= 0.00D+00
 Coeff-Com: -0.119D-04 0.104D-03 0.568D-03-0.243D-02-0.854D-02 0.426D-01
 Coeff-Com: -0.944D-02-0.344D+00 0.132D+01
 Coeff:     -0.119D-04 0.104D-03 0.568D-03-0.243D-02-0.854D-02 0.426D-01
 Coeff:     -0.944D-02-0.344D+00 0.132D+01
 Gap=     0.906 Goal=   None    Shift=    0.000
 RMSDP=1.05D-07 MaxDP=8.66D-07 DE=-1.42D-10 OVMax= 0.00D+00

 Cycle  10  Pass 1  IDiag  1:
 E= -444.535700854749     Delta-E=       -0.000000000004 Rises=F Damp=F
 DIIS: error= 6.15D-08 at cycle  10 NSaved=  10.
 NSaved=10 IEnMin=10 EnMin= -444.535700854749     IErMin=10 ErrMin= 6.15D-08
 ErrMax= 6.15D-08  0.00D+00 EMaxC= 1.00D-01 BMatC= 1.05D-13 BMatP= 1.66D-12
 IDIUse=1 WtCom= 1.00D+00 WtEn= 0.00D+00
 Coeff-Com:  0.167D-05-0.132D-04-0.935D-04 0.387D-03 0.921D-03-0.600D-02
 Coeff-Com:  0.577D-02 0.516D-01-0.440D+00 0.139D+01
 Coeff:      0.167D-05-0.132D-04-0.935D-04 0.387D-03 0.921D-03-0.600D-02
 Coeff:      0.577D-02 0.516D-01-0.440D+00 0.139D+01
 Gap=     0.906 Goal=   None    Shift=    0.000
 RMSDP=2.89D-08 MaxDP=2.11D-07 DE=-4.09D-12 OVMax= 0.00D+00

 Cycle  11  Pass 1  IDiag  1:
 E= -444.535700854750     Delta-E=       -0.000000000001 Rises=F Damp=F
 DIIS: error= 7.13D-09 at cycle  11 NSaved=  11.
 NSaved=11 IEnMin=11 EnMin= -444.535700854750     IErMin=11 ErrMin= 7.13D-09
 ErrMax= 7.13D-09  0.00D+00 EMaxC= 1.00D-01 BMatC= 2.49D-15 BMatP= 1.05D-13
 IDIUse=1 WtCom= 1.00D+00 WtEn= 0.00D+00
 Coeff-Com: -0.410D-07-0.113D-06 0.678D-05-0.244D-04 0.613D-04 0.114D-03
 Coeff-Com: -0.123D-02-0.204D-02 0.722D-01-0.371D+00 0.130D+01
 Coeff:     -0.410D-07-0.113D-06 0.678D-05-0.244D-04 0.613D-04 0.114D-03
 Coeff:     -0.123D-02-0.204D-02 0.722D-01-0.371D+00 0.130D+01
 Gap=     0.906 Goal=   None    Shift=    0.000
 RMSDP=4.28D-09 MaxDP=2.86D-08 DE=-9.09D-13 OVMax= 0.00D+00

 SCF Done:  E(RHF) =  -444.535700855     A.U. after   11 cycles
            NFock= 11  Conv=0.43D-08     -V/T= 2.0116
 KE= 4.394351761981D+02 PE=-1.605185007016D+03 EE= 4.475149723404D+02
 Leave Link  502 at Wed Jan 30 15:52:25 2019, MaxMem=   402653184 cpu:               0.5 elap:               0.1
 (Enter /usr/local/gaussian/G16/A03/g16/l801.exe)
 Range of M.O.s used for correlation:     1    33
 NBasis=    33 NAE=    25 NBE=    25 NFC=     0 NFV=     0
 NROrb=     33 NOA=    25 NOB=    25 NVA=     8 NVB=     8
 Leave Link  801 at Wed Jan 30 15:52:25 2019, MaxMem=   402653184 cpu:               0.1 elap:               0.0
 (Enter /usr/local/gaussian/G16/A03/g16/l1002.exe)
 Minotr:  Closed shell wavefunction.
          Direct CPHF calculation.
          Differentiating once with respect to electric field.
                with respect to dipole field.
          Electric field/nuclear overlap derivatives assumed to be zero.
          Requested convergence is 1.0D-08 RMS, and 1.0D-07 maximum.
          NewPWx=F KeepS1=T KeepF1=T KeepIn=T MapXYZ=F SortEE=F KeepMc=T.
 Keep R1 and R3 ints in memory in canonical form, NReq=1131840.
 FoFCou: FMM=F IPFlag=           0 FMFlag=           0 FMFlg1=           0
         NFxFlg=           0 DoJE=F BraDBF=F KetDBF=F FulRan=T
         wScrn=  0.000000 ICntrl=       600 IOpCl=  0 I1Cent=           0 NGrid=           0
         NMat0=    1 NMatS0=    561 NMatT0=    0 NMatD0=    1 NMtDS0=    0 NMtDT0=    0
 Symmetry not used in FoFCou.
 Two-electron integral symmetry not used.
          MDV=     402653184 using IRadAn=       4.
          Solving linear equations separately, MaxMat=       0.
          Doing perturbations at frequencies    0.000000    0.023893    0.042823    0.047785    0.085645
          There are    15 degrees of freedom in the 1st order CPHF.  IDoFFX=0 NUNeed=    15.
 LinEq1:  Iter=  0 NonCon=    15 RMS=1.28D-01 Max=8.45D-01 NDo=    15
 AX will form    15 AO Fock derivatives at one time.
 LinEq1:  Iter=  1 NonCon=    15 RMS=2.39D-02 Max=1.17D-01 NDo=    15
 LinEq1:  Iter=  2 NonCon=    15 RMS=4.28D-03 Max=2.83D-02 NDo=    15
 LinEq1:  Iter=  3 NonCon=    15 RMS=1.04D-03 Max=5.37D-03 NDo=    15
 LinEq1:  Iter=  4 NonCon=    15 RMS=2.03D-04 Max=1.07D-03 NDo=    15
 LinEq1:  Iter=  5 NonCon=    15 RMS=4.14D-05 Max=2.20D-04 NDo=    15
 LinEq1:  Iter=  6 NonCon=    15 RMS=8.08D-06 Max=3.82D-05 NDo=    15
 LinEq1:  Iter=  7 NonCon=    15 RMS=1.95D-06 Max=9.48D-06 NDo=    15
 LinEq1:  Iter=  8 NonCon=    15 RMS=4.82D-07 Max=2.30D-06 NDo=    15
 LinEq1:  Iter=  9 NonCon=    15 RMS=5.92D-08 Max=3.08D-07 NDo=    15
 LinEq1:  Iter= 10 NonCon=     1 RMS=1.02D-08 Max=5.06D-08 NDo=    15
 LinEq1:  Iter= 11 NonCon=     0 RMS=1.16D-09 Max=6.68D-09 NDo=     1
 Linear equations converged to 1.000D-08 1.000D-07 after    11 iterations.
 FullF1:  Do perturbations      1 to      15.
 SCF Polarizability for W=    0.000000:
                1             2             3 
      1  0.181463D+02
      2 -0.885672D+00  0.124666D+02
      3  0.514922D+00  0.269324D+00  0.127357D+02
 Isotropic polarizability for W=    0.000000       14.45 Bohr**3.
 SCF Polarizability for W=    0.023893:
                1             2             3 
      1  0.181666D+02
      2 -0.887823D+00  0.124767D+02
      3  0.516096D+00  0.269643D+00  0.127461D+02
 Isotropic polarizability for W=    0.023893       14.46 Bohr**3.
 SCF Polarizability for W=    0.042823:
                1             2             3 
      1  0.182116D+02
      2 -0.892611D+00  0.124990D+02
      3  0.518708D+00  0.270346D+00  0.127693D+02
 Isotropic polarizability for W=    0.042823       14.49 Bohr**3.
 SCF Polarizability for W=    0.047785:
                1             2             3 
      1  0.182277D+02
      2 -0.894324D+00  0.125070D+02
      3  0.519643D+00  0.270597D+00  0.127776D+02
 Isotropic polarizability for W=    0.047785       14.50 Bohr**3.
 SCF Polarizability for W=    0.085645:
                1             2             3 
      1  0.184105D+02
      2 -0.913884D+00  0.125973D+02
      3  0.530316D+00  0.273429D+00  0.128714D+02
 Isotropic polarizability for W=    0.085645       14.63 Bohr**3.
 SCF Static Hyperpolarizability:
 K=  1 block:
                1 
      1 -0.140210D+02
 K=  2 block:
                1             2 
      1 -0.431771D+01
      2 -0.214544D+01 -0.421288D+01
 K=  3 block:
                1             2             3 
      1  0.155133D+01
      2 -0.118951D+01  0.183340D+01
      3 -0.360345D+01  0.386082D+01  0.188991D+00
 SCF Beta(-W,W;0) for W=    0.023893:
 K=  1 block:
                1             2             3 
      1 -0.140505D+02
      2 -0.432181D+01 -0.214809D+01
      3  0.155336D+01 -0.119120D+01 -0.360794D+01
 K=  2 block:
                1             2             3 
      1 -0.432720D+01
      2 -0.214900D+01 -0.421928D+01
      3 -0.119164D+01  0.183535D+01  0.386378D+01
 K=  3 block:
                1             2             3 
      1  0.155582D+01
      2 -0.119225D+01  0.183609D+01
      3 -0.360941D+01  0.386484D+01  0.190594D+00
 SCF Beta(W,W;-2W) for W=    0.023893:
 K=  1 block:
                1             2             3 
      1 -0.141099D+02
      2 -0.434087D+01 -0.215706D+01
      3  0.156240D+01 -0.119759D+01 -0.362287D+01
 K=  2 block:
                1             2             3 
      1 -0.432460D+01
      2 -0.215431D+01 -0.423215D+01
      3 -0.119625D+01  0.184076D+01  0.387395D+01
 K=  3 block:
                1             2             3 
      1  0.155497D+01
      2 -0.119442D+01  0.183851D+01
      3 -0.361844D+01  0.387077D+01  0.193821D+00
 SCF Beta(-W,W;0) for W=    0.042823:
 K=  1 block:
                1             2             3 
      1 -0.141162D+02
      2 -0.433090D+01 -0.215396D+01
      3  0.155788D+01 -0.119494D+01 -0.361792D+01
 K=  2 block:
                1             2             3 
      1 -0.434832D+01
      2 -0.215690D+01 -0.423352D+01
      3 -0.119638D+01  0.183968D+01  0.387034D+01
 K=  3 block:
                1             2             3 
      1  0.156584D+01
      2 -0.119834D+01  0.184208D+01
      3 -0.362266D+01  0.387374D+01  0.194165D+00
 SCF Beta(W,W;-2W) for W=    0.042823:
 K=  1 block:
                1             2             3 
      1 -0.143102D+02
      2 -0.439287D+01 -0.218314D+01
      3  0.158732D+01 -0.121579D+01 -0.366643D+01
 K=  2 block:
                1             2             3 
      1 -0.433969D+01
      2 -0.217410D+01 -0.427538D+01
      3 -0.121140D+01  0.185725D+01  0.390321D+01
 K=  3 block:
                1             2             3 
      1  0.156300D+01
      2 -0.120541D+01  0.184994D+01
      3 -0.365195D+01  0.389284D+01  0.204755D+00
 SCF Beta(-W,W;0) for W=    0.047785:
 K=  1 block:
                1             2             3 
      1 -0.141398D+02
      2 -0.433415D+01 -0.215606D+01
      3  0.155949D+01 -0.119628D+01 -0.362149D+01
 K=  2 block:
                1             2             3 
      1 -0.435587D+01
      2 -0.215972D+01 -0.423861D+01
      3 -0.119807D+01  0.184122D+01  0.387268D+01
 K=  3 block:
                1             2             3 
      1  0.156942D+01
      2 -0.120052D+01  0.184422D+01
      3 -0.362740D+01  0.387692D+01  0.195446D+00
 SCF Beta(-W,W;0) for W=    0.085645:
 K=  1 block:
                1             2             3 
      1 -0.144090D+02
      2 -0.437079D+01 -0.217986D+01
      3  0.157780D+01 -0.121156D+01 -0.366199D+01
 K=  2 block:
                1             2             3 
      1 -0.444216D+01
      2 -0.219182D+01 -0.429660D+01
      3 -0.121742D+01  0.185880D+01  0.389891D+01
 K=  3 block:
                1             2             3 
      1  0.161047D+01
      2 -0.122544D+01  0.186860D+01
      3 -0.368126D+01  0.391283D+01  0.210174D+00
 End of Minotr F.D. properties on file   721 Mask=      31 NFrqRd=     3 NDeriv=     1 ND12= 1 LenFil=     140:
 Frequencies=    0.000000    0.023893    0.042823
 Property number 1 -- Alpha(-w,w) frequency  1    0.000000:
                 1             2             3 
      1   0.181463D+02 -0.885672D+00  0.514922D+00
      2  -0.885672D+00  0.124666D+02  0.269324D+00
      3   0.514922D+00  0.269324D+00  0.127357D+02
 Property number 1 -- Alpha(-w,w) frequency  2    0.023893:
                 1             2             3 
      1   0.181666D+02 -0.887823D+00  0.516096D+00
      2  -0.887823D+00  0.124767D+02  0.269643D+00
      3   0.516096D+00  0.269643D+00  0.127461D+02
 Property number 1 -- Alpha(-w,w) frequency  3    0.042823:
                 1             2             3 
      1   0.182116D+02 -0.892611D+00  0.518708D+00
      2  -0.892611D+00  0.124990D+02  0.270346D+00
      3   0.518708D+00  0.270346D+00  0.127693D+02
 Property number 5 -- Beta(-w,w,0) frequency  1    0.000000:
                 1 
      1  -0.140210D+02
      2  -0.431771D+01
      3  -0.214544D+01
      4   0.155133D+01
      5  -0.118951D+01
      6  -0.360345D+01
      7  -0.431771D+01
      8  -0.214544D+01
      9  -0.421288D+01
     10  -0.118951D+01
     11   0.183340D+01
     12   0.386082D+01
     13   0.155133D+01
     14  -0.118951D+01
     15   0.183340D+01
     16  -0.360345D+01
     17   0.386082D+01
     18   0.188991D+00
 Property number 5 -- Beta(-w,w,0) frequency  2    0.023893:
                 1 
      1  -0.140505D+02
      2  -0.432181D+01
      3  -0.214809D+01
      4   0.155336D+01
      5  -0.119120D+01
      6  -0.360794D+01
      7  -0.432720D+01
      8  -0.214900D+01
      9  -0.421928D+01
     10  -0.119164D+01
     11   0.183535D+01
     12   0.386378D+01
     13   0.155582D+01
     14  -0.119225D+01
     15   0.183609D+01
     16  -0.360941D+01
     17   0.386484D+01
     18   0.190594D+00
 Property number 5 -- Beta(-w,w,0) frequency  3    0.042823:
                 1 
      1  -0.141162D+02
      2  -0.433090D+01
      3  -0.215396D+01
      4   0.155788D+01
      5  -0.119494D+01
      6  -0.361792D+01
      7  -0.434832D+01
      8  -0.215690D+01
      9  -0.423352D+01
     10  -0.119638D+01
     11   0.183968D+01
     12   0.387034D+01
     13   0.156584D+01
     14  -0.119834D+01
     15   0.184208D+01
     16  -0.362266D+01
     17   0.387374D+01
     18   0.194165D+00
 Property number 6 -- Beta(w,w,-2w) frequency  1    0.000000:
                 1 
      1  -0.140210D+02
      2  -0.431771D+01
      3  -0.214544D+01
      4   0.155133D+01
      5  -0.118951D+01
      6  -0.360345D+01
      7  -0.431771D+01
      8  -0.214544D+01
      9  -0.421288D+01
     10  -0.118951D+01
     11   0.183340D+01
     12   0.386082D+01
     13   0.155133D+01
     14  -0.118951D+01
     15   0.183340D+01
     16  -0.360345D+01
     17   0.386082D+01
     18   0.188991D+00
 Property number 6 -- Beta(w,w,-2w) frequency  2    0.023893:
                 1 
      1  -0.141099D+02
      2  -0.434087D+01
      3  -0.215706D+01
      4   0.156240D+01
      5  -0.119759D+01
      6  -0.362287D+01
      7  -0.432460D+01
      8  -0.215431D+01
      9  -0.423215D+01
     10  -0.119625D+01
     11   0.184076D+01
     12   0.387395D+01
     13   0.155497D+01
     14  -0.119442D+01
     15   0.183851D+01
     16  -0.361844D+01
     17   0.387077D+01
     18   0.193821D+00
 Property number 6 -- Beta(w,w,-2w) frequency  3    0.042823:
                 1 
      1  -0.143102D+02
      2  -0.439287D+01
      3  -0.218314D+01
      4   0.158732D+01
      5  -0.121579D+01
      6  -0.366643D+01
      7  -0.433969D+01
      8  -0.217410D+01
      9  -0.427538D+01
     10  -0.121140D+01
     11   0.185725D+01
     12   0.390321D+01
     13   0.156300D+01
     14  -0.120541D+01
     15   0.184994D+01
     16  -0.365195D+01
     17   0.389284D+01
     18   0.204755D+00
 End of Minotr F.D. properties file   722 does not exist.
 End of Minotr F.D. properties file   788 does not exist.
 Leave Link 1002 at Wed Jan 30 15:52:25 2019, MaxMem=   402653184 cpu:               0.6 elap:               0.2
 (Enter /usr/local/gaussian/G16/A03/g16/l601.exe)
 Copying SCF densities to generalized density rwf, IOpCl= 0 IROHF=0.

 **********************************************************************

            Population analysis using the SCF density.

 **********************************************************************

 Alpha  occ. eigenvalues --  -25.98128 -25.98046 -25.97804 -20.31972 -11.31126
 Alpha  occ. eigenvalues --  -11.12028  -1.60061  -1.51029  -1.50637  -1.34691
 Alpha  occ. eigenvalues --   -0.92478  -0.80307  -0.68624  -0.67841  -0.67178
 Alpha  occ. eigenvalues --   -0.59484  -0.55698  -0.52502  -0.51738  -0.49587
 Alpha  occ. eigenvalues --   -0.49432  -0.47629  -0.47194  -0.41769  -0.39012
 Alpha virt. eigenvalues --    0.51601   0.54204   0.56545   0.57082   0.61840
 Alpha virt. eigenvalues --    0.66499   0.68075   0.73200
 Electronic spatial extent (au):  <R**2>=           2979.2095
 Charge=             -0.0000 electrons
 Dipole moment (field-independent basis, Debye):
    X=             -1.5199    Y=             -0.3331    Z=              0.2315  Tot=              1.5731
 Quadrupole moment (field-independent basis, Debye-Ang):
   XX=            -16.1286   YY=            -29.9375   ZZ=            -30.2708
   XY=              2.3072   XZ=             -0.4352   YZ=              0.2224
 Traceless Quadrupole moment (field-independent basis, Debye-Ang):
   XX=              9.3170   YY=             -4.4918   ZZ=             -4.8252
   XY=              2.3072   XZ=             -0.4352   YZ=              0.2224
 Octapole moment (field-independent basis, Debye-Ang**2):
  XXX=            241.4791  YYY=             90.4011  ZZZ=              6.9450  XYY=            111.6424
  XXY=             15.1911  XXZ=              1.6786  XZZ=            113.5883  YZZ=             31.4163
  YYZ=              3.5425  XYZ=             -1.5326
 Hexadecapole moment (field-independent basis, Debye-Ang**3):
 XXXX=          -2198.1959 YYYY=           -278.8170 ZZZZ=            -89.8355 XXXY=           -230.2629
 XXXZ=            -18.1029 YYYX=           -315.8900 YYYZ=             -9.4548 ZZZX=            -35.6208
 ZZZY=             -3.8847 XXYY=           -501.6598 XXZZ=           -481.4334 YYZZ=            -64.0659
 XXYZ=              6.3506 YYXZ=            -14.3636 ZZXY=           -111.3644
 N-N= 2.736991576226D+02 E-N=-1.605185007107D+03  KE= 4.394351761981D+02
  Exact polarizability:  18.146  -0.886  12.467   0.515   0.269  12.736
 Approx polarizability:  13.656   0.337  11.912  -0.126   0.007  11.966
 No NMR shielding tensors so no spin-rotation constants.
 Leave Link  601 at Wed Jan 30 15:52:25 2019, MaxMem=   402653184 cpu:               0.4 elap:               0.1
 (Enter /usr/local/gaussian/G16/A03/g16/l106.exe)
 NDeriv=      3 NFrqRd=  3 NDerD0=      0 MskFDP=      31 MskDFD=      31 MskDF0=       0
 At 1st pt F.D. properties on file   721 Mask=      31 NFrqRd=     3 NDeriv=     1 ND12= 1 LenFil=     140:
 Frequencies=    0.000000    0.023893    0.042823
 Property number 1 -- Alpha(-w,w) frequency  1    0.000000:
                 1             2             3 
      1   0.181463D+02 -0.885672D+00  0.514922D+00
      2  -0.885672D+00  0.124666D+02  0.269324D+00
      3   0.514922D+00  0.269324D+00  0.127357D+02
 Property number 1 -- Alpha(-w,w) frequency  2    0.023893:
                 1             2             3 
      1   0.181666D+02 -0.887823D+00  0.516096D+00
      2  -0.887823D+00  0.124767D+02  0.269643D+00
      3   0.516096D+00  0.269643D+00  0.127461D+02
 Property number 1 -- Alpha(-w,w) frequency  3    0.042823:
                 1             2             3 
      1   0.182116D+02 -0.892611D+00  0.518708D+00
      2  -0.892611D+00  0.124990D+02  0.270346D+00
      3   0.518708D+00  0.270346D+00  0.127693D+02
 Property number 5 -- Beta(-w,w,0) frequency  1    0.000000:
                 1 
      1  -0.140210D+02
      2  -0.431771D+01
      3  -0.214544D+01
      4   0.155133D+01
      5  -0.118951D+01
      6  -0.360345D+01
      7  -0.431771D+01
      8  -0.214544D+01
      9  -0.421288D+01
     10  -0.118951D+01
     11   0.183340D+01
     12   0.386082D+01
     13   0.155133D+01
     14  -0.118951D+01
     15   0.183340D+01
     16  -0.360345D+01
     17   0.386082D+01
     18   0.188991D+00
 Property number 5 -- Beta(-w,w,0) frequency  2    0.023893:
                 1 
      1  -0.140505D+02
      2  -0.432181D+01
      3  -0.214809D+01
      4   0.155336D+01
      5  -0.119120D+01
      6  -0.360794D+01
      7  -0.432720D+01
      8  -0.214900D+01
      9  -0.421928D+01
     10  -0.119164D+01
     11   0.183535D+01
     12   0.386378D+01
     13   0.155582D+01
     14  -0.119225D+01
     15   0.183609D+01
     16  -0.360941D+01
     17   0.386484D+01
     18   0.190594D+00
 Property number 5 -- Beta(-w,w,0) frequency  3    0.042823:
                 1 
      1  -0.141162D+02
      2  -0.433090D+01
      3  -0.215396D+01
      4   0.155788D+01
      5  -0.119494D+01
      6  -0.361792D+01
      7  -0.434832D+01
      8  -0.215690D+01
      9  -0.423352D+01
     10  -0.119638D+01
     11   0.183968D+01
     12   0.387034D+01
     13   0.156584D+01
     14  -0.119834D+01
     15   0.184208D+01
     16  -0.362266D+01
     17   0.387374D+01
     18   0.194165D+00
 Property number 6 -- Beta(w,w,-2w) frequency  1    0.000000:
                 1 
      1  -0.140210D+02
      2  -0.431771D+01
      3  -0.214544D+01
      4   0.155133D+01
      5  -0.118951D+01
      6  -0.360345D+01
      7  -0.431771D+01
      8  -0.214544D+01
      9  -0.421288D+01
     10  -0.118951D+01
     11   0.183340D+01
     12   0.386082D+01
     13   0.155133D+01
     14  -0.118951D+01
     15   0.183340D+01
     16  -0.360345D+01
     17   0.386082D+01
     18   0.188991D+00
 Property number 6 -- Beta(w,w,-2w) frequency  2    0.023893:
                 1 
      1  -0.141099D+02
      2  -0.434087D+01
      3  -0.215706D+01
      4   0.156240D+01
      5  -0.119759D+01
      6  -0.362287D+01
      7  -0.432460D+01
      8  -0.215431D+01
      9  -0.423215D+01
     10  -0.119625D+01
     11   0.184076D+01
     12   0.387395D+01
     13   0.155497D+01
     14  -0.119442D+01
     15   0.183851D+01
     16  -0.361844D+01
     17   0.387077D+01
     18   0.193821D+00
 Property number 6 -- Beta(w,w,-2w) frequency  3    0.042823:
                 1 
      1  -0.143102D+02
      2  -0.439287D+01
      3  -0.218314D+01
      4   0.158732D+01
      5  -0.121579D+01
      6  -0.366643D+01
      7  -0.433969D+01
      8  -0.217410D+01
      9  -0.427538D+01
     10  -0.121140D+01
     11   0.185725D+01
     12   0.390321D+01
     13   0.156300D+01
     14  -0.120541D+01
     15   0.184994D+01
     16  -0.365195D+01
     17   0.389284D+01
     18   0.204755D+00
 At 1st pt F.D. properties file   722 does not exist.
 D2Numr ... symmetry will not be used.
 Leave Link  106 at Wed Jan 30 15:52:25 2019, MaxMem=   402653184 cpu:               0.2 elap:               0.1
 (Enter /usr/local/gaussian/G16/A03/g16/l301.exe)
 Standard basis: STO-3G (5D, 7F)
 Ernie: Thresh=  0.10000D-02 Tol=  0.10000D-05 Strict=F.
 The following finite field(s) will be applied:
 An electric field of              0.0003  0.0000  0.0000
    33 basis functions,    99 primitive gaussians,    33 cartesian basis functions
    25 alpha electrons       25 beta electrons
       nuclear repulsion energy       273.6991576226 Hartrees.
 IExCor=    0 DFT=F Ex=HF Corr=None ExCW=0 ScaHFX=  1.000000
 ScaDFX=  1.000000  1.000000  1.000000  1.000000 ScalE2=  1.000000  1.000000
 IRadAn=      5 IRanWt=     -1 IRanGd=            0 ICorTp=0 IEmpDi=  4
 NAtoms=    9 NActive=    9 NUniq=    9 SFac= 1.00D+00 NAtFMM=   60 NAOKFM=F Big=F
 Integral buffers will be    131072 words long.
 Raffenetti 1 integral format.
 Two-electron integral symmetry is turned off.
 Leave Link  301 at Wed Jan 30 15:52:25 2019, MaxMem=   402653184 cpu:               0.2 elap:               0.1
 (Enter /usr/local/gaussian/G16/A03/g16/l302.exe)
 NPDir=0 NMtPBC=     1 NCelOv=     1 NCel=       1 NClECP=     1 NCelD=      1
         NCelK=      1 NCelE2=     1 NClLst=     1 CellRange=     0.0.
 One-electron integrals computed using PRISM.
 NBasis=    33 RedAO= T EigKep=  2.41D-01  NBF=    33
 NBsUse=    33 1.00D-06 EigRej= -1.00D+00 NBFU=    33
 Leave Link  302 at Wed Jan 30 15:52:25 2019, MaxMem=   402653184 cpu:               0.3 elap:               0.1
 (Enter /usr/local/gaussian/G16/A03/g16/l303.exe)
 DipDrv:  MaxL=1.
 The nuclear repulsion energy is now       273.5860682665 hartrees.
 Leave Link  303 at Wed Jan 30 15:52:25 2019, MaxMem=   402653184 cpu:               0.1 elap:               0.0
 (Enter /usr/local/gaussian/G16/A03/g16/l401.exe)
 Initial guess from the checkpoint file:  "output_gaussian_gamma.chk"
 B after Tr=     0.000000    0.000000    0.000000
         Rot=    1.000000    0.000000    0.000000    0.000000 Ang=   0.00 deg.
 Guess basis will be translated and rotated to current coordinates.
 JPrj=2 DoOrth=T DoCkMO=T.
 Leave Link  401 at Wed Jan 30 15:52:25 2019, MaxMem=   402653184 cpu:               0.3 elap:               0.1
 (Enter /usr/local/gaussian/G16/A03/g16/l502.exe)
 Keep R1 ints in memory in canonical form, NReq=973179.
 FoFCou: FMM=F IPFlag=           0 FMFlag=           0 FMFlg1=           0
         NFxFlg=           0 DoJE=F BraDBF=F KetDBF=F FulRan=T
         wScrn=  0.000000 ICntrl=       600 IOpCl=  0 I1Cent=           0 NGrid=           0
         NMat0=    1 NMatS0=    561 NMatT0=    0 NMatD0=    1 NMtDS0=    0 NMtDT0=    0
 Symmetry not used in FoFCou.
 Two-electron integral symmetry not used.
 Closed shell SCF:
 Using DIIS extrapolation, IDIIS=  1040.
 NGot=   402653184 LenX=   402492551 LenY=   402491021
 Requested convergence on RMS density matrix=1.00D-08 within 128 cycles.
 Requested convergence on MAX density matrix=1.00D-06.
 Requested convergence on             energy=1.00D-06.
 No special actions if energy rises.

 Cycle   1  Pass 1  IDiag  1:
 E= -444.535900174528    
 DIIS: error= 8.43D-05 at cycle   1 NSaved=   1.
 NSaved= 1 IEnMin= 1 EnMin= -444.535900174528     IErMin= 1 ErrMin= 8.43D-05
 ErrMax= 8.43D-05  0.00D+00 EMaxC= 1.00D-01 BMatC= 4.12D-07 BMatP= 4.12D-07
 IDIUse=1 WtCom= 1.00D+00 WtEn= 0.00D+00
 Coeff-Com:  0.100D+01
 Coeff:      0.100D+01
 Gap=     1.042 Goal=   None    Shift=    0.000
 RMSDP=3.74D-05 MaxDP=2.98D-04              OVMax= 0.00D+00

 Cycle   2  Pass 1  IDiag  1:
 E= -444.535901087746     Delta-E=       -0.000000913218 Rises=F Damp=F
 DIIS: error= 2.58D-05 at cycle   2 NSaved=   2.
 NSaved= 2 IEnMin= 2 EnMin= -444.535901087746     IErMin= 2 ErrMin= 2.58D-05
 ErrMax= 2.58D-05  0.00D+00 EMaxC= 1.00D-01 BMatC= 3.48D-08 BMatP= 4.12D-07
 IDIUse=1 WtCom= 1.00D+00 WtEn= 0.00D+00
 Coeff-Com: -0.186D+00 0.119D+01
 Coeff:     -0.186D+00 0.119D+01
 Gap=     0.906 Goal=   None    Shift=    0.000
 RMSDP=1.19D-05 MaxDP=8.78D-05 DE=-9.13D-07 OVMax= 0.00D+00

 Cycle   3  Pass 1  IDiag  1:
 E= -444.535901174731     Delta-E=       -0.000000086985 Rises=F Damp=F
 DIIS: error= 8.18D-06 at cycle   3 NSaved=   3.
 NSaved= 3 IEnMin= 3 EnMin= -444.535901174731     IErMin= 3 ErrMin= 8.18D-06
 ErrMax= 8.18D-06  0.00D+00 EMaxC= 1.00D-01 BMatC= 2.81D-09 BMatP= 3.48D-08
 IDIUse=1 WtCom= 1.00D+00 WtEn= 0.00D+00
 Coeff-Com: -0.258D-01-0.197D+00 0.122D+01
 Coeff:     -0.258D-01-0.197D+00 0.122D+01
 Gap=     0.906 Goal=   None    Shift=    0.000
 RMSDP=3.91D-06 MaxDP=3.55D-05 DE=-8.70D-08 OVMax= 0.00D+00

 Cycle   4  Pass 1  IDiag  1:
 E= -444.535901182233     Delta-E=       -0.000000007502 Rises=F Damp=F
 DIIS: error= 1.50D-06 at cycle   4 NSaved=   4.
 NSaved= 4 IEnMin= 4 EnMin= -444.535901182233     IErMin= 4 ErrMin= 1.50D-06
 ErrMax= 1.50D-06  0.00D+00 EMaxC= 1.00D-01 BMatC= 1.31D-10 BMatP= 2.81D-09
 IDIUse=1 WtCom= 1.00D+00 WtEn= 0.00D+00
 Coeff-Com:  0.119D-01-0.215D-01-0.180D+00 0.119D+01
 Coeff:      0.119D-01-0.215D-01-0.180D+00 0.119D+01
 Gap=     0.906 Goal=   None    Shift=    0.000
 RMSDP=8.18D-07 MaxDP=6.19D-06 DE=-7.50D-09 OVMax= 0.00D+00

 Cycle   5  Pass 1  IDiag  1:
 E= -444.535901182557     Delta-E=       -0.000000000324 Rises=F Damp=F
 DIIS: error= 4.11D-07 at cycle   5 NSaved=   5.
 NSaved= 5 IEnMin= 5 EnMin= -444.535901182557     IErMin= 5 ErrMin= 4.11D-07
 ErrMax= 4.11D-07  0.00D+00 EMaxC= 1.00D-01 BMatC= 6.90D-12 BMatP= 1.31D-10
 IDIUse=1 WtCom= 1.00D+00 WtEn= 0.00D+00
 Coeff-Com:  0.204D-02 0.104D-01-0.804D-01 0.621D-01 0.101D+01
 Coeff:      0.204D-02 0.104D-01-0.804D-01 0.621D-01 0.101D+01
 Gap=     0.906 Goal=   None    Shift=    0.000
 RMSDP=1.75D-07 MaxDP=1.05D-06 DE=-3.24D-10 OVMax= 0.00D+00

 Cycle   6  Pass 1  IDiag  1:
 E= -444.535901182574     Delta-E=       -0.000000000017 Rises=F Damp=F
 DIIS: error= 1.10D-07 at cycle   6 NSaved=   6.
 NSaved= 6 IEnMin= 6 EnMin= -444.535901182574     IErMin= 6 ErrMin= 1.10D-07
 ErrMax= 1.10D-07  0.00D+00 EMaxC= 1.00D-01 BMatC= 4.54D-13 BMatP= 6.90D-12
 IDIUse=1 WtCom= 1.00D+00 WtEn= 0.00D+00
 Coeff-Com: -0.119D-02-0.303D-02 0.360D-01-0.710D-01-0.371D+00 0.141D+01
 Coeff:     -0.119D-02-0.303D-02 0.360D-01-0.710D-01-0.371D+00 0.141D+01
 Gap=     0.906 Goal=   None    Shift=    0.000
 RMSDP=6.17D-08 MaxDP=3.44D-07 DE=-1.71D-11 OVMax= 0.00D+00

 Cycle   7  Pass 1  IDiag  1:
 E= -444.535901182574     Delta-E=       -0.000000000000 Rises=F Damp=F
 DIIS: error= 2.08D-08 at cycle   7 NSaved=   7.
 NSaved= 7 IEnMin= 7 EnMin= -444.535901182574     IErMin= 7 ErrMin= 2.08D-08
 ErrMax= 2.08D-08  0.00D+00 EMaxC= 1.00D-01 BMatC= 1.93D-14 BMatP= 4.54D-13
 IDIUse=1 WtCom= 1.00D+00 WtEn= 0.00D+00
 Coeff-Com:  0.204D-03 0.286D-03-0.522D-02 0.145D-01 0.433D-01-0.323D+00
 Coeff-Com:  0.127D+01
 Coeff:      0.204D-03 0.286D-03-0.522D-02 0.145D-01 0.433D-01-0.323D+00
 Coeff:      0.127D+01
 Gap=     0.906 Goal=   None    Shift=    0.000
 RMSDP=1.19D-08 MaxDP=7.84D-08 DE=-4.55D-13 OVMax= 0.00D+00

 Cycle   8  Pass 1  IDiag  1:
 E= -444.535901182575     Delta-E=       -0.000000000001 Rises=F Damp=F
 DIIS: error= 4.54D-09 at cycle   8 NSaved=   8.
 NSaved= 8 IEnMin= 8 EnMin= -444.535901182575     IErMin= 8 ErrMin= 4.54D-09
 ErrMax= 4.54D-09  0.00D+00 EMaxC= 1.00D-01 BMatC= 1.37D-15 BMatP= 1.93D-14
 IDIUse=1 WtCom= 1.00D+00 WtEn= 0.00D+00
 Coeff-Com:  0.102D-03 0.261D-03-0.304D-02 0.603D-02 0.309D-01-0.115D+00
 Coeff-Com: -0.106D-01 0.109D+01
 Coeff:      0.102D-03 0.261D-03-0.304D-02 0.603D-02 0.309D-01-0.115D+00
 Coeff:     -0.106D-01 0.109D+01
 Gap=     0.906 Goal=   None    Shift=    0.000
 RMSDP=2.92D-09 MaxDP=2.03D-08 DE=-6.82D-13 OVMax= 0.00D+00

 SCF Done:  E(RHF) =  -444.535901183     A.U. after    8 cycles
            NFock=  8  Conv=0.29D-08     -V/T= 2.0116
 KE= 4.394375001985D+02 PE=-1.605081142755D+03 EE= 4.475216731078D+02
 Leave Link  502 at Wed Jan 30 15:52:26 2019, MaxMem=   402653184 cpu:               0.4 elap:               0.1
 (Enter /usr/local/gaussian/G16/A03/g16/l801.exe)
 Range of M.O.s used for correlation:     1    33
 NBasis=    33 NAE=    25 NBE=    25 NFC=     0 NFV=     0
 NROrb=     33 NOA=    25 NOB=    25 NVA=     8 NVB=     8
 Leave Link  801 at Wed Jan 30 15:52:26 2019, MaxMem=   402653184 cpu:               0.1 elap:               0.0
 (Enter /usr/local/gaussian/G16/A03/g16/l1002.exe)
 Minotr:  Closed shell wavefunction.
          Direct CPHF calculation.
          Differentiating once with respect to electric field.
                with respect to dipole field.
          Electric field/nuclear overlap derivatives assumed to be zero.
          Requested convergence is 1.0D-08 RMS, and 1.0D-07 maximum.
          NewPWx=F KeepS1=T KeepF1=T KeepIn=T MapXYZ=F SortEE=F KeepMc=T.
 Keep R1 and R3 ints in memory in canonical form, NReq=1131840.
 FoFCou: FMM=F IPFlag=           0 FMFlag=           0 FMFlg1=           0
         NFxFlg=           0 DoJE=F BraDBF=F KetDBF=F FulRan=T
         wScrn=  0.000000 ICntrl=       600 IOpCl=  0 I1Cent=           0 NGrid=           0
         NMat0=    1 NMatS0=    561 NMatT0=    0 NMatD0=    1 NMtDS0=    0 NMtDT0=    0
 Symmetry not used in FoFCou.
 Two-electron integral symmetry not used.
          MDV=     402653184 using IRadAn=       4.
          Solving linear equations separately, MaxMat=       0.
          Doing perturbations at frequencies    0.000000    0.023893    0.042823    0.047785    0.085645
          There are    15 degrees of freedom in the 1st order CPHF.  IDoFFX=0 NUNeed=    15.
 LinEq1:  Iter=  0 NonCon=    15 RMS=1.28D-01 Max=8.43D-01 NDo=    15
 AX will form    15 AO Fock derivatives at one time.
 LinEq1:  Iter=  1 NonCon=    15 RMS=2.39D-02 Max=1.17D-01 NDo=    15
 LinEq1:  Iter=  2 NonCon=    15 RMS=4.27D-03 Max=2.83D-02 NDo=    15
 LinEq1:  Iter=  3 NonCon=    15 RMS=1.04D-03 Max=5.37D-03 NDo=    15
 LinEq1:  Iter=  4 NonCon=    15 RMS=2.03D-04 Max=1.06D-03 NDo=    15
 LinEq1:  Iter=  5 NonCon=    15 RMS=4.14D-05 Max=2.21D-04 NDo=    15
 LinEq1:  Iter=  6 NonCon=    15 RMS=8.08D-06 Max=3.86D-05 NDo=    15
 LinEq1:  Iter=  7 NonCon=    15 RMS=1.94D-06 Max=9.47D-06 NDo=    15
 LinEq1:  Iter=  8 NonCon=    15 RMS=4.83D-07 Max=2.29D-06 NDo=    15
 LinEq1:  Iter=  9 NonCon=    15 RMS=5.91D-08 Max=3.08D-07 NDo=    15
 LinEq1:  Iter= 10 NonCon=     1 RMS=1.02D-08 Max=5.01D-08 NDo=    15
 LinEq1:  Iter= 11 NonCon=     0 RMS=1.15D-09 Max=6.48D-09 NDo=     1
 Linear equations converged to 1.000D-08 1.000D-07 after    11 iterations.
 FullF1:  Do perturbations      1 to      15.
 SCF Polarizability for W=    0.000000:
                1             2             3 
      1  0.181417D+02
      2 -0.887112D+00  0.124659D+02
      3  0.515439D+00  0.268928D+00  0.127345D+02
 Isotropic polarizability for W=    0.000000       14.45 Bohr**3.
 SCF Polarizability for W=    0.023893:
                1             2             3 
      1  0.181619D+02
      2 -0.889265D+00  0.124760D+02
      3  0.516614D+00  0.269246D+00  0.127449D+02
 Isotropic polarizability for W=    0.023893       14.46 Bohr**3.
 SCF Polarizability for W=    0.042823:
                1             2             3 
      1  0.182069D+02
      2 -0.894055D+00  0.124983D+02
      3  0.519227D+00  0.269948D+00  0.127681D+02
 Isotropic polarizability for W=    0.042823       14.49 Bohr**3.
 SCF Polarizability for W=    0.047785:
                1             2             3 
      1  0.182230D+02
      2 -0.895770D+00  0.125063D+02
      3  0.520163D+00  0.270198D+00  0.127764D+02
 Isotropic polarizability for W=    0.047785       14.50 Bohr**3.
 SCF Polarizability for W=    0.085645:
                1             2             3 
      1  0.184057D+02
      2 -0.915341D+00  0.125966D+02
      3  0.530842D+00  0.273025D+00  0.128702D+02
 Isotropic polarizability for W=    0.085645       14.62 Bohr**3.
 SCF Static Hyperpolarizability:
 K=  1 block:
                1 
      1 -0.139771D+02
 K=  2 block:
                1             2 
      1 -0.432135D+01
      2 -0.214213D+01 -0.421285D+01
 K=  3 block:
                1             2             3 
      1  0.155174D+01
      2 -0.118973D+01  0.183373D+01
      3 -0.360000D+01  0.385954D+01  0.190201D+00
 SCF Beta(-W,W;0) for W=    0.023893:
 K=  1 block:
                1             2             3 
      1 -0.140064D+02
      2 -0.432546D+01 -0.214475D+01
      3  0.155378D+01 -0.119141D+01 -0.360447D+01
 K=  2 block:
                1             2             3 
      1 -0.433085D+01
      2 -0.214567D+01 -0.421926D+01
      3 -0.119186D+01  0.183568D+01  0.386250D+01
 K=  3 block:
                1             2             3 
      1  0.155624D+01
      2 -0.119247D+01  0.183642D+01
      3 -0.360596D+01  0.386356D+01  0.191809D+00
 SCF Beta(W,W;-2W) for W=    0.023893:
 K=  1 block:
                1             2             3 
      1 -0.140655D+02
      2 -0.434455D+01 -0.215372D+01
      3  0.156283D+01 -0.119782D+01 -0.361941D+01
 K=  2 block:
                1             2             3 
      1 -0.432828D+01
      2 -0.215093D+01 -0.423213D+01
      3 -0.119646D+01  0.184109D+01  0.387266D+01
 K=  3 block:
                1             2             3 
      1  0.155539D+01
      2 -0.119463D+01  0.183884D+01
      3 -0.361492D+01  0.386947D+01  0.195047D+00
 SCF Beta(-W,W;0) for W=    0.042823:
 K=  1 block:
                1             2             3 
      1 -0.140718D+02
      2 -0.433459D+01 -0.215057D+01
      3  0.155831D+01 -0.119515D+01 -0.361439D+01
 K=  2 block:
                1             2             3 
      1 -0.435200D+01
      2 -0.215355D+01 -0.423350D+01
      3 -0.119660D+01  0.184001D+01  0.386904D+01
 K=  3 block:
                1             2             3 
      1  0.156627D+01
      2 -0.119856D+01  0.184242D+01
      3 -0.361918D+01  0.387245D+01  0.195392D+00
 SCF Beta(W,W;-2W) for W=    0.042823:
 K=  1 block:
                1             2             3 
      1 -0.142648D+02
      2 -0.439665D+01 -0.217975D+01
      3  0.158778D+01 -0.121604D+01 -0.366295D+01
 K=  2 block:
                1             2             3 
      1 -0.434346D+01
      2 -0.217058D+01 -0.427537D+01
      3 -0.121162D+01  0.185760D+01  0.390190D+01
 K=  3 block:
                1             2             3 
      1  0.156345D+01
      2 -0.120562D+01  0.185026D+01
      3 -0.364828D+01  0.389149D+01  0.206018D+00
 SCF Beta(-W,W;0) for W=    0.047785:
 K=  1 block:
                1             2             3 
      1 -0.140952D+02
      2 -0.433784D+01 -0.215264D+01
      3  0.155992D+01 -0.119649D+01 -0.361793D+01
 K=  2 block:
                1             2             3 
      1 -0.435957D+01
      2 -0.215636D+01 -0.423859D+01
      3 -0.119830D+01  0.184155D+01  0.387137D+01
 K=  3 block:
                1             2             3 
      1  0.156986D+01
      2 -0.120074D+01  0.184456D+01
      3 -0.362391D+01  0.387563D+01  0.196677D+00
 SCF Beta(-W,W;0) for W=    0.085645:
 K=  1 block:
                1             2             3 
      1 -0.143631D+02
      2 -0.437461D+01 -0.217620D+01
      3  0.157826D+01 -0.121176D+01 -0.365817D+01
 K=  2 block:
                1             2             3 
      1 -0.444599D+01
      2 -0.218834D+01 -0.429661D+01
      3 -0.121766D+01  0.185913D+01  0.389751D+01
 K=  3 block:
                1             2             3 
      1  0.161096D+01
      2 -0.122569D+01  0.186898D+01
      3 -0.367767D+01  0.391149D+01  0.211455D+00
 End of Minotr F.D. properties on file   721 Mask=      31 NFrqRd=     3 NDeriv=     1 ND12= 1 LenFil=     140:
 Frequencies=    0.000000    0.023893    0.042823
 Property number 1 -- Alpha(-w,w) frequency  1    0.000000:
                 1             2             3 
      1   0.181417D+02 -0.887112D+00  0.515439D+00
      2  -0.887112D+00  0.124659D+02  0.268928D+00
      3   0.515439D+00  0.268928D+00  0.127345D+02
 Property number 1 -- Alpha(-w,w) frequency  2    0.023893:
                 1             2             3 
      1   0.181619D+02 -0.889265D+00  0.516614D+00
      2  -0.889265D+00  0.124760D+02  0.269246D+00
      3   0.516614D+00  0.269246D+00  0.127449D+02
 Property number 1 -- Alpha(-w,w) frequency  3    0.042823:
                 1             2             3 
      1   0.182069D+02 -0.894055D+00  0.519227D+00
      2  -0.894055D+00  0.124983D+02  0.269948D+00
      3   0.519227D+00  0.269948D+00  0.127681D+02
 Property number 5 -- Beta(-w,w,0) frequency  1    0.000000:
                 1 
      1  -0.139771D+02
      2  -0.432135D+01
      3  -0.214213D+01
      4   0.155174D+01
      5  -0.118973D+01
      6  -0.360000D+01
      7  -0.432135D+01
      8  -0.214213D+01
      9  -0.421285D+01
     10  -0.118973D+01
     11   0.183373D+01
     12   0.385954D+01
     13   0.155174D+01
     14  -0.118973D+01
     15   0.183373D+01
     16  -0.360000D+01
     17   0.385954D+01
     18   0.190201D+00
 Property number 5 -- Beta(-w,w,0) frequency  2    0.023893:
                 1 
      1  -0.140064D+02
      2  -0.432546D+01
      3  -0.214475D+01
      4   0.155378D+01
      5  -0.119141D+01
      6  -0.360447D+01
      7  -0.433085D+01
      8  -0.214567D+01
      9  -0.421926D+01
     10  -0.119186D+01
     11   0.183568D+01
     12   0.386250D+01
     13   0.155624D+01
     14  -0.119247D+01
     15   0.183642D+01
     16  -0.360596D+01
     17   0.386356D+01
     18   0.191809D+00
 Property number 5 -- Beta(-w,w,0) frequency  3    0.042823:
                 1 
      1  -0.140718D+02
      2  -0.433459D+01
      3  -0.215057D+01
      4   0.155831D+01
      5  -0.119515D+01
      6  -0.361439D+01
      7  -0.435200D+01
      8  -0.215355D+01
      9  -0.423350D+01
     10  -0.119660D+01
     11   0.184001D+01
     12   0.386904D+01
     13   0.156627D+01
     14  -0.119856D+01
     15   0.184242D+01
     16  -0.361918D+01
     17   0.387245D+01
     18   0.195392D+00
 Property number 6 -- Beta(w,w,-2w) frequency  1    0.000000:
                 1 
      1  -0.139771D+02
      2  -0.432135D+01
      3  -0.214213D+01
      4   0.155174D+01
      5  -0.118973D+01
      6  -0.360000D+01
      7  -0.432135D+01
      8  -0.214213D+01
      9  -0.421285D+01
     10  -0.118973D+01
     11   0.183373D+01
     12   0.385954D+01
     13   0.155174D+01
     14  -0.118973D+01
     15   0.183373D+01
     16  -0.360000D+01
     17   0.385954D+01
     18   0.190201D+00
 Property number 6 -- Beta(w,w,-2w) frequency  2    0.023893:
                 1 
      1  -0.140655D+02
      2  -0.434455D+01
      3  -0.215372D+01
      4   0.156283D+01
      5  -0.119782D+01
      6  -0.361941D+01
      7  -0.432828D+01
      8  -0.215093D+01
      9  -0.423213D+01
     10  -0.119646D+01
     11   0.184109D+01
     12   0.387266D+01
     13   0.155539D+01
     14  -0.119463D+01
     15   0.183884D+01
     16  -0.361492D+01
     17   0.386947D+01
     18   0.195047D+00
 Property number 6 -- Beta(w,w,-2w) frequency  3    0.042823:
                 1 
      1  -0.142648D+02
      2  -0.439665D+01
      3  -0.217975D+01
      4   0.158778D+01
      5  -0.121604D+01
      6  -0.366295D+01
      7  -0.434346D+01
      8  -0.217058D+01
      9  -0.427537D+01
     10  -0.121162D+01
     11   0.185760D+01
     12   0.390190D+01
     13   0.156345D+01
     14  -0.120562D+01
     15   0.185026D+01
     16  -0.364828D+01
     17   0.389149D+01
     18   0.206018D+00
 End of Minotr F.D. properties file   722 does not exist.
 End of Minotr F.D. properties file   788 does not exist.
 Leave Link 1002 at Wed Jan 30 15:52:26 2019, MaxMem=   402653184 cpu:               0.6 elap:               0.2
 (Enter /usr/local/gaussian/G16/A03/g16/l601.exe)
 Copying SCF densities to generalized density rwf, IOpCl= 0 IROHF=0.

 **********************************************************************

            Population analysis using the SCF density.

 **********************************************************************

 Alpha  occ. eigenvalues --  -25.97924 -25.97826 -25.97586 -20.31703 -11.30905
 Alpha  occ. eigenvalues --  -11.11701  -1.59854  -1.50811  -1.50446  -1.34426
 Alpha  occ. eigenvalues --   -0.92175  -0.80069  -0.68384  -0.67616  -0.66953
 Alpha  occ. eigenvalues --   -0.59186  -0.55406  -0.52267  -0.51516  -0.49374
 Alpha  occ. eigenvalues --   -0.49228  -0.47425  -0.46987  -0.41510  -0.38737
 Alpha virt. eigenvalues --    0.51852   0.54447   0.56767   0.57289   0.62153
 Alpha virt. eigenvalues --    0.66830   0.68410   0.73492
 Electronic spatial extent (au):  <R**2>=           2979.1131
 Charge=             -0.0000 electrons
 Dipole moment (field-independent basis, Debye):
    X=             -1.5352    Y=             -0.3323    Z=              0.2311  Tot=              1.5877
 Quadrupole moment (field-independent basis, Debye-Ang):
   XX=            -16.0029   YY=            -29.9370   ZZ=            -30.2673
   XY=              2.3121   XZ=             -0.4286   YZ=              0.2215
 Traceless Quadrupole moment (field-independent basis, Debye-Ang):
   XX=              9.3995   YY=             -4.5346   ZZ=             -4.8649
   XY=              2.3121   XZ=             -0.4286   YZ=              0.2215
 Octapole moment (field-independent basis, Debye-Ang**2):
  XXX=            240.6335  YYY=             90.4008  ZZZ=              6.9434  XYY=            111.6296
  XXY=             15.1415  XXZ=              1.6259  XZZ=            113.5647  YZZ=             31.4162
  YYZ=              3.5438  XYZ=             -1.5308
 Hexadecapole moment (field-independent basis, Debye-Ang**3):
 XXXX=          -2192.7844 YYYY=           -278.8176 ZZZZ=            -89.8278 XXXY=           -229.9148
 XXXZ=            -17.7338 YYYX=           -315.8704 YYYZ=             -9.4583 ZZZX=            -35.6073
 ZZZY=             -3.8862 XXYY=           -501.5587 XXZZ=           -481.2840 YYZZ=            -64.0660
 XXYZ=              6.3510 YYXZ=            -14.3646 ZZXY=           -111.3621
 N-N= 2.735860682665D+02 E-N=-1.605081142728D+03  KE= 4.394375001985D+02
  Exact polarizability:  18.142  -0.887  12.466   0.515   0.269  12.734
 Approx polarizability:  13.652   0.335  11.912  -0.125   0.007  11.965
 No NMR shielding tensors so no spin-rotation constants.
 Leave Link  601 at Wed Jan 30 15:52:26 2019, MaxMem=   402653184 cpu:               0.4 elap:               0.1
 (Enter /usr/local/gaussian/G16/A03/g16/l106.exe)
 NDeriv=      3 NFrqRd=  3 NDerD0=      0 MskFDP=      31 MskDFD=      31 MskDF0=       0
 Re-enter D2Numr:  atom   0 IXYZ=1 step-up   number 1
 Leave Link  106 at Wed Jan 30 15:52:26 2019, MaxMem=   402653184 cpu:               0.3 elap:               0.1
 (Enter /usr/local/gaussian/G16/A03/g16/l301.exe)
 Standard basis: STO-3G (5D, 7F)
 Ernie: Thresh=  0.10000D-02 Tol=  0.10000D-05 Strict=F.
 The following finite field(s) will be applied:
 An electric field of             -0.0003  0.0000  0.0000
    33 basis functions,    99 primitive gaussians,    33 cartesian basis functions
    25 alpha electrons       25 beta electrons
       nuclear repulsion energy       273.6991576226 Hartrees.
 IExCor=    0 DFT=F Ex=HF Corr=None ExCW=0 ScaHFX=  1.000000
 ScaDFX=  1.000000  1.000000  1.000000  1.000000 ScalE2=  1.000000  1.000000
 IRadAn=      5 IRanWt=     -1 IRanGd=            0 ICorTp=0 IEmpDi=  4
 NAtoms=    9 NActive=    9 NUniq=    9 SFac= 1.00D+00 NAtFMM=   60 NAOKFM=F Big=F
 Integral buffers will be    131072 words long.
 Raffenetti 1 integral format.
 Two-electron integral symmetry is turned off.
 Leave Link  301 at Wed Jan 30 15:52:26 2019, MaxMem=   402653184 cpu:               0.2 elap:               0.1
 (Enter /usr/local/gaussian/G16/A03/g16/l302.exe)
 NPDir=0 NMtPBC=     1 NCelOv=     1 NCel=       1 NClECP=     1 NCelD=      1
         NCelK=      1 NCelE2=     1 NClLst=     1 CellRange=     0.0.
 One-electron integrals computed using PRISM.
 NBasis=    33 RedAO= T EigKep=  2.41D-01  NBF=    33
 NBsUse=    33 1.00D-06 EigRej= -1.00D+00 NBFU=    33
 Leave Link  302 at Wed Jan 30 15:52:26 2019, MaxMem=   402653184 cpu:               0.3 elap:               0.1
 (Enter /usr/local/gaussian/G16/A03/g16/l303.exe)
 DipDrv:  MaxL=1.
 The nuclear repulsion energy is now       273.8122469786 hartrees.
 Leave Link  303 at Wed Jan 30 15:52:27 2019, MaxMem=   402653184 cpu:               0.1 elap:               0.0
 (Enter /usr/local/gaussian/G16/A03/g16/l401.exe)
 Initial guess from the checkpoint file:  "output_gaussian_gamma.chk"
 B after Tr=     0.000000    0.000000    0.000000
         Rot=    1.000000    0.000000    0.000000    0.000000 Ang=   0.00 deg.
 Guess basis will be translated and rotated to current coordinates.
 JPrj=2 DoOrth=T DoCkMO=T.
 Leave Link  401 at Wed Jan 30 15:52:27 2019, MaxMem=   402653184 cpu:               0.3 elap:               0.1
 (Enter /usr/local/gaussian/G16/A03/g16/l502.exe)
 Keep R1 ints in memory in canonical form, NReq=973179.
 FoFCou: FMM=F IPFlag=           0 FMFlag=           0 FMFlg1=           0
         NFxFlg=           0 DoJE=F BraDBF=F KetDBF=F FulRan=T
         wScrn=  0.000000 ICntrl=       600 IOpCl=  0 I1Cent=           0 NGrid=           0
         NMat0=    1 NMatS0=    561 NMatT0=    0 NMatD0=    1 NMtDS0=    0 NMtDT0=    0
 Symmetry not used in FoFCou.
 Two-electron integral symmetry not used.
 Closed shell SCF:
 Using DIIS extrapolation, IDIIS=  1040.
 NGot=   402653184 LenX=   402492551 LenY=   402491021
 Requested convergence on RMS density matrix=1.00D-08 within 128 cycles.
 Requested convergence on MAX density matrix=1.00D-06.
 Requested convergence on             energy=1.00D-06.
 No special actions if energy rises.

 Cycle   1  Pass 1  IDiag  1:
 E= -444.535501534970    
 DIIS: error= 8.43D-05 at cycle   1 NSaved=   1.
 NSaved= 1 IEnMin= 1 EnMin= -444.535501534970     IErMin= 1 ErrMin= 8.43D-05
 ErrMax= 8.43D-05  0.00D+00 EMaxC= 1.00D-01 BMatC= 4.12D-07 BMatP= 4.12D-07
 IDIUse=1 WtCom= 1.00D+00 WtEn= 0.00D+00
 Coeff-Com:  0.100D+01
 Coeff:      0.100D+01
 Gap=     1.040 Goal=   None    Shift=    0.000
 RMSDP=3.74D-05 MaxDP=2.98D-04              OVMax= 0.00D+00

 Cycle   2  Pass 1  IDiag  1:
 E= -444.535502448301     Delta-E=       -0.000000913331 Rises=F Damp=F
 DIIS: error= 2.58D-05 at cycle   2 NSaved=   2.
 NSaved= 2 IEnMin= 2 EnMin= -444.535502448301     IErMin= 2 ErrMin= 2.58D-05
 ErrMax= 2.58D-05  0.00D+00 EMaxC= 1.00D-01 BMatC= 3.48D-08 BMatP= 4.12D-07
 IDIUse=1 WtCom= 1.00D+00 WtEn= 0.00D+00
 Coeff-Com: -0.185D+00 0.119D+01
 Coeff:     -0.185D+00 0.119D+01
 Gap=     0.906 Goal=   None    Shift=    0.000
 RMSDP=1.19D-05 MaxDP=8.78D-05 DE=-9.13D-07 OVMax= 0.00D+00

 Cycle   3  Pass 1  IDiag  1:
 E= -444.535502535317     Delta-E=       -0.000000087016 Rises=F Damp=F
 DIIS: error= 8.18D-06 at cycle   3 NSaved=   3.
 NSaved= 3 IEnMin= 3 EnMin= -444.535502535317     IErMin= 3 ErrMin= 8.18D-06
 ErrMax= 8.18D-06  0.00D+00 EMaxC= 1.00D-01 BMatC= 2.82D-09 BMatP= 3.48D-08
 IDIUse=1 WtCom= 1.00D+00 WtEn= 0.00D+00
 Coeff-Com: -0.260D-01-0.196D+00 0.122D+01
 Coeff:     -0.260D-01-0.196D+00 0.122D+01
 Gap=     0.906 Goal=   None    Shift=    0.000
 RMSDP=3.92D-06 MaxDP=3.55D-05 DE=-8.70D-08 OVMax= 0.00D+00

 Cycle   4  Pass 1  IDiag  1:
 E= -444.535502542836     Delta-E=       -0.000000007519 Rises=F Damp=F
 DIIS: error= 1.50D-06 at cycle   4 NSaved=   4.
 NSaved= 4 IEnMin= 4 EnMin= -444.535502542836     IErMin= 4 ErrMin= 1.50D-06
 ErrMax= 1.50D-06  0.00D+00 EMaxC= 1.00D-01 BMatC= 1.32D-10 BMatP= 2.82D-09
 IDIUse=1 WtCom= 1.00D+00 WtEn= 0.00D+00
 Coeff-Com:  0.119D-01-0.218D-01-0.179D+00 0.119D+01
 Coeff:      0.119D-01-0.218D-01-0.179D+00 0.119D+01
 Gap=     0.906 Goal=   None    Shift=    0.000
 RMSDP=8.20D-07 MaxDP=6.21D-06 DE=-7.52D-09 OVMax= 0.00D+00

 Cycle   5  Pass 1  IDiag  1:
 E= -444.535502543164     Delta-E=       -0.000000000327 Rises=F Damp=F
 DIIS: error= 4.12D-07 at cycle   5 NSaved=   5.
 NSaved= 5 IEnMin= 5 EnMin= -444.535502543164     IErMin= 5 ErrMin= 4.12D-07
 ErrMax= 4.12D-07  0.00D+00 EMaxC= 1.00D-01 BMatC= 6.93D-12 BMatP= 1.32D-10
 IDIUse=1 WtCom= 1.00D+00 WtEn= 0.00D+00
 Coeff-Com:  0.206D-02 0.104D-01-0.806D-01 0.622D-01 0.101D+01
 Coeff:      0.206D-02 0.104D-01-0.806D-01 0.622D-01 0.101D+01
 Gap=     0.906 Goal=   None    Shift=    0.000
 RMSDP=1.76D-07 MaxDP=1.05D-06 DE=-3.27D-10 OVMax= 0.00D+00

 Cycle   6  Pass 1  IDiag  1:
 E= -444.535502543179     Delta-E=       -0.000000000015 Rises=F Damp=F
 DIIS: error= 1.10D-07 at cycle   6 NSaved=   6.
 NSaved= 6 IEnMin= 6 EnMin= -444.535502543179     IErMin= 6 ErrMin= 1.10D-07
 ErrMax= 1.10D-07  0.00D+00 EMaxC= 1.00D-01 BMatC= 4.55D-13 BMatP= 6.93D-12
 IDIUse=1 WtCom= 1.00D+00 WtEn= 0.00D+00
 Coeff-Com: -0.120D-02-0.303D-02 0.360D-01-0.709D-01-0.372D+00 0.141D+01
 Coeff:     -0.120D-02-0.303D-02 0.360D-01-0.709D-01-0.372D+00 0.141D+01
 Gap=     0.906 Goal=   None    Shift=    0.000
 RMSDP=6.17D-08 MaxDP=3.44D-07 DE=-1.52D-11 OVMax= 0.00D+00

 Cycle   7  Pass 1  IDiag  1:
 E= -444.535502543181     Delta-E=       -0.000000000002 Rises=F Damp=F
 DIIS: error= 2.09D-08 at cycle   7 NSaved=   7.
 NSaved= 7 IEnMin= 7 EnMin= -444.535502543181     IErMin= 7 ErrMin= 2.09D-08
 ErrMax= 2.09D-08  0.00D+00 EMaxC= 1.00D-01 BMatC= 1.93D-14 BMatP= 4.55D-13
 IDIUse=1 WtCom= 1.00D+00 WtEn= 0.00D+00
 Coeff-Com:  0.208D-03 0.293D-03-0.533D-02 0.147D-01 0.446D-01-0.327D+00
 Coeff-Com:  0.127D+01
 Coeff:      0.208D-03 0.293D-03-0.533D-02 0.147D-01 0.446D-01-0.327D+00
 Coeff:      0.127D+01
 Gap=     0.906 Goal=   None    Shift=    0.000
 RMSDP=1.20D-08 MaxDP=7.85D-08 DE=-2.05D-12 OVMax= 0.00D+00

 Cycle   8  Pass 1  IDiag  1:
 E= -444.535502543182     Delta-E=       -0.000000000001 Rises=F Damp=F
 DIIS: error= 4.54D-09 at cycle   8 NSaved=   8.
 NSaved= 8 IEnMin= 8 EnMin= -444.535502543182     IErMin= 8 ErrMin= 4.54D-09
 ErrMax= 4.54D-09  0.00D+00 EMaxC= 1.00D-01 BMatC= 1.36D-15 BMatP= 1.93D-14
 IDIUse=1 WtCom= 1.00D+00 WtEn= 0.00D+00
 Coeff-Com:  0.102D-03 0.259D-03-0.303D-02 0.599D-02 0.308D-01-0.115D+00
 Coeff-Com: -0.976D-02 0.109D+01
 Coeff:      0.102D-03 0.259D-03-0.303D-02 0.599D-02 0.308D-01-0.115D+00
 Coeff:     -0.976D-02 0.109D+01
 Gap=     0.906 Goal=   None    Shift=    0.000
 RMSDP=2.91D-09 MaxDP=2.01D-08 DE=-6.82D-13 OVMax= 0.00D+00

 SCF Done:  E(RHF) =  -444.535502543     A.U. after    8 cycles
            NFock=  8  Conv=0.29D-08     -V/T= 2.0116
 KE= 4.394328561788D+02 PE=-1.605288879345D+03 EE= 4.475082736441D+02
 Leave Link  502 at Wed Jan 30 15:52:27 2019, MaxMem=   402653184 cpu:               0.4 elap:               0.1
 (Enter /usr/local/gaussian/G16/A03/g16/l801.exe)
 Range of M.O.s used for correlation:     1    33
 NBasis=    33 NAE=    25 NBE=    25 NFC=     0 NFV=     0
 NROrb=     33 NOA=    25 NOB=    25 NVA=     8 NVB=     8
 Leave Link  801 at Wed Jan 30 15:52:27 2019, MaxMem=   402653184 cpu:               0.1 elap:               0.0
 (Enter /usr/local/gaussian/G16/A03/g16/l1002.exe)
 Minotr:  Closed shell wavefunction.
          Direct CPHF calculation.
          Differentiating once with respect to electric field.
                with respect to dipole field.
          Electric field/nuclear overlap derivatives assumed to be zero.
          Requested convergence is 1.0D-08 RMS, and 1.0D-07 maximum.
          NewPWx=F KeepS1=T KeepF1=T KeepIn=T MapXYZ=F SortEE=F KeepMc=T.
 Keep R1 and R3 ints in memory in canonical form, NReq=1131840.
 FoFCou: FMM=F IPFlag=           0 FMFlag=           0 FMFlg1=           0
         NFxFlg=           0 DoJE=F BraDBF=F KetDBF=F FulRan=T
         wScrn=  0.000000 ICntrl=       600 IOpCl=  0 I1Cent=           0 NGrid=           0
         NMat0=    1 NMatS0=    561 NMatT0=    0 NMatD0=    1 NMtDS0=    0 NMtDT0=    0
 Symmetry not used in FoFCou.
 Two-electron integral symmetry not used.
          MDV=     402653184 using IRadAn=       4.
          Solving linear equations separately, MaxMat=       0.
          Doing perturbations at frequencies    0.000000    0.023893    0.042823    0.047785    0.085645
          There are    15 degrees of freedom in the 1st order CPHF.  IDoFFX=0 NUNeed=    15.
 LinEq1:  Iter=  0 NonCon=    15 RMS=1.28D-01 Max=8.45D-01 NDo=    15
 AX will form    15 AO Fock derivatives at one time.
 LinEq1:  Iter=  1 NonCon=    15 RMS=2.39D-02 Max=1.17D-01 NDo=    15
 LinEq1:  Iter=  2 NonCon=    15 RMS=4.29D-03 Max=2.83D-02 NDo=    15
 LinEq1:  Iter=  3 NonCon=    15 RMS=1.04D-03 Max=5.37D-03 NDo=    15
 LinEq1:  Iter=  4 NonCon=    15 RMS=2.04D-04 Max=1.07D-03 NDo=    15
 LinEq1:  Iter=  5 NonCon=    15 RMS=4.13D-05 Max=2.19D-04 NDo=    15
 LinEq1:  Iter=  6 NonCon=    15 RMS=8.07D-06 Max=3.78D-05 NDo=    15
 LinEq1:  Iter=  7 NonCon=    15 RMS=1.95D-06 Max=9.48D-06 NDo=    15
 LinEq1:  Iter=  8 NonCon=    15 RMS=4.82D-07 Max=2.31D-06 NDo=    15
 LinEq1:  Iter=  9 NonCon=    15 RMS=5.93D-08 Max=3.08D-07 NDo=    15
 LinEq1:  Iter= 10 NonCon=     1 RMS=1.02D-08 Max=5.10D-08 NDo=    15
 LinEq1:  Iter= 11 NonCon=     0 RMS=1.17D-09 Max=6.86D-09 NDo=     1
 Linear equations converged to 1.000D-08 1.000D-07 after    11 iterations.
 FullF1:  Do perturbations      1 to      15.
 SCF Polarizability for W=    0.000000:
                1             2             3 
      1  0.181510D+02
      2 -0.884233D+00  0.124673D+02
      3  0.514405D+00  0.269721D+00  0.127369D+02
 Isotropic polarizability for W=    0.000000       14.45 Bohr**3.
 SCF Polarizability for W=    0.023893:
                1             2             3 
      1  0.181713D+02
      2 -0.886383D+00  0.124774D+02
      3  0.515578D+00  0.270040D+00  0.127473D+02
 Isotropic polarizability for W=    0.023893       14.47 Bohr**3.
 SCF Polarizability for W=    0.042823:
                1             2             3 
      1  0.182163D+02
      2 -0.891168D+00  0.124997D+02
      3  0.518189D+00  0.270744D+00  0.127705D+02
 Isotropic polarizability for W=    0.042823       14.50 Bohr**3.
 SCF Polarizability for W=    0.047785:
                1             2             3 
      1  0.182324D+02
      2 -0.892880D+00  0.125077D+02
      3  0.519123D+00  0.270996D+00  0.127788D+02
 Isotropic polarizability for W=    0.047785       14.51 Bohr**3.
 SCF Polarizability for W=    0.085645:
                1             2             3 
      1  0.184153D+02
      2 -0.912427D+00  0.125980D+02
      3  0.529790D+00  0.273833D+00  0.128727D+02
 Isotropic polarizability for W=    0.085645       14.63 Bohr**3.
 SCF Static Hyperpolarizability:
 K=  1 block:
                1 
      1 -0.140649D+02
 K=  2 block:
                1             2 
      1 -0.431406D+01
      2 -0.214875D+01 -0.421291D+01
 K=  3 block:
                1             2             3 
      1  0.155091D+01
      2 -0.118929D+01  0.183307D+01
      3 -0.360689D+01  0.386209D+01  0.187788D+00
 SCF Beta(-W,W;0) for W=    0.023893:
 K=  1 block:
                1             2             3 
      1 -0.140946D+02
      2 -0.431814D+01 -0.215143D+01
      3  0.155294D+01 -0.119098D+01 -0.361142D+01
 K=  2 block:
                1             2             3 
      1 -0.432353D+01
      2 -0.215232D+01 -0.421931D+01
      3 -0.119142D+01  0.183502D+01  0.386507D+01
 K=  3 block:
                1             2             3 
      1  0.155540D+01
      2 -0.119202D+01  0.183576D+01
      3 -0.361287D+01  0.386611D+01  0.189385D+00
 SCF Beta(W,W;-2W) for W=    0.023893:
 K=  1 block:
                1             2             3 
      1 -0.141543D+02
      2 -0.433717D+01 -0.216039D+01
      3  0.156196D+01 -0.119736D+01 -0.362633D+01
 K=  2 block:
                1             2             3 
      1 -0.432091D+01
      2 -0.215769D+01 -0.423217D+01
      3 -0.119602D+01  0.184042D+01  0.387523D+01
 K=  3 block:
                1             2             3 
      1  0.155454D+01
      2 -0.119420D+01  0.183819D+01
      3 -0.362195D+01  0.387207D+01  0.192601D+00
 SCF Beta(-W,W;0) for W=    0.042823:
 K=  1 block:
                1             2             3 
      1 -0.141606D+02
      2 -0.432721D+01 -0.215736D+01
      3  0.155745D+01 -0.119472D+01 -0.362146D+01
 K=  2 block:
                1             2             3 
      1 -0.434462D+01
      2 -0.216025D+01 -0.423354D+01
      3 -0.119615D+01  0.183935D+01  0.387165D+01
 K=  3 block:
                1             2             3 
      1  0.156540D+01
      2 -0.119811D+01  0.184174D+01
      3 -0.362614D+01  0.387503D+01  0.192944D+00
 SCF Beta(W,W;-2W) for W=    0.042823:
 K=  1 block:
                1             2             3 
      1 -0.143557D+02
      2 -0.438908D+01 -0.218653D+01
      3  0.158685D+01 -0.121554D+01 -0.366993D+01
 K=  2 block:
                1             2             3 
      1 -0.433590D+01
      2 -0.217763D+01 -0.427538D+01
      3 -0.121117D+01  0.185689D+01  0.390453D+01
 K=  3 block:
                1             2             3 
      1  0.156255D+01
      2 -0.120519D+01  0.184961D+01
      3 -0.365562D+01  0.389419D+01  0.203499D+00
 SCF Beta(-W,W;0) for W=    0.047785:
 K=  1 block:
                1             2             3 
      1 -0.141843D+02
      2 -0.433044D+01 -0.215948D+01
      3  0.155906D+01 -0.119606D+01 -0.362505D+01
 K=  2 block:
                1             2             3 
      1 -0.435217D+01
      2 -0.216308D+01 -0.423863D+01
      3 -0.119785D+01  0.184089D+01  0.387399D+01
 K=  3 block:
                1             2             3 
      1  0.156898D+01
      2 -0.120029D+01  0.184387D+01
      3 -0.363089D+01  0.387822D+01  0.194221D+00
 SCF Beta(-W,W;0) for W=    0.085645:
 K=  1 block:
                1             2             3 
      1 -0.144550D+02
      2 -0.436696D+01 -0.218352D+01
      3  0.157733D+01 -0.121135D+01 -0.366581D+01
 K=  2 block:
                1             2             3 
      1 -0.443832D+01
      2 -0.219529D+01 -0.429660D+01
      3 -0.121719D+01  0.185846D+01  0.390031D+01
 K=  3 block:
                1             2             3 
      1  0.160998D+01
      2 -0.122519D+01  0.186823D+01
      3 -0.368484D+01  0.391418D+01  0.208899D+00
 End of Minotr F.D. properties on file   721 Mask=      31 NFrqRd=     3 NDeriv=     1 ND12= 1 LenFil=     140:
 Frequencies=    0.000000    0.023893    0.042823
 Property number 1 -- Alpha(-w,w) frequency  1    0.000000:
                 1             2             3 
      1   0.181510D+02 -0.884233D+00  0.514405D+00
      2  -0.884233D+00  0.124673D+02  0.269721D+00
      3   0.514405D+00  0.269721D+00  0.127369D+02
 Property number 1 -- Alpha(-w,w) frequency  2    0.023893:
                 1             2             3 
      1   0.181713D+02 -0.886383D+00  0.515578D+00
      2  -0.886383D+00  0.124774D+02  0.270040D+00
      3   0.515578D+00  0.270040D+00  0.127473D+02
 Property number 1 -- Alpha(-w,w) frequency  3    0.042823:
                 1             2             3 
      1   0.182163D+02 -0.891168D+00  0.518189D+00
      2  -0.891168D+00  0.124997D+02  0.270744D+00
      3   0.518189D+00  0.270744D+00  0.127705D+02
 Property number 5 -- Beta(-w,w,0) frequency  1    0.000000:
                 1 
      1  -0.140649D+02
      2  -0.431406D+01
      3  -0.214875D+01
      4   0.155091D+01
      5  -0.118929D+01
      6  -0.360689D+01
      7  -0.431406D+01
      8  -0.214875D+01
      9  -0.421291D+01
     10  -0.118929D+01
     11   0.183307D+01
     12   0.386209D+01
     13   0.155091D+01
     14  -0.118929D+01
     15   0.183307D+01
     16  -0.360689D+01
     17   0.386209D+01
     18   0.187788D+00
 Property number 5 -- Beta(-w,w,0) frequency  2    0.023893:
                 1 
      1  -0.140946D+02
      2  -0.431814D+01
      3  -0.215143D+01
      4   0.155294D+01
      5  -0.119098D+01
      6  -0.361142D+01
      7  -0.432353D+01
      8  -0.215232D+01
      9  -0.421931D+01
     10  -0.119142D+01
     11   0.183502D+01
     12   0.386507D+01
     13   0.155540D+01
     14  -0.119202D+01
     15   0.183576D+01
     16  -0.361287D+01
     17   0.386611D+01
     18   0.189385D+00
 Property number 5 -- Beta(-w,w,0) frequency  3    0.042823:
                 1 
      1  -0.141606D+02
      2  -0.432721D+01
      3  -0.215736D+01
      4   0.155745D+01
      5  -0.119472D+01
      6  -0.362146D+01
      7  -0.434462D+01
      8  -0.216025D+01
      9  -0.423354D+01
     10  -0.119615D+01
     11   0.183935D+01
     12   0.387165D+01
     13   0.156540D+01
     14  -0.119811D+01
     15   0.184174D+01
     16  -0.362614D+01
     17   0.387503D+01
     18   0.192944D+00
 Property number 6 -- Beta(w,w,-2w) frequency  1    0.000000:
                 1 
      1  -0.140649D+02
      2  -0.431406D+01
      3  -0.214875D+01
      4   0.155091D+01
      5  -0.118929D+01
      6  -0.360689D+01
      7  -0.431406D+01
      8  -0.214875D+01
      9  -0.421291D+01
     10  -0.118929D+01
     11   0.183307D+01
     12   0.386209D+01
     13   0.155091D+01
     14  -0.118929D+01
     15   0.183307D+01
     16  -0.360689D+01
     17   0.386209D+01
     18   0.187788D+00
 Property number 6 -- Beta(w,w,-2w) frequency  2    0.023893:
                 1 
      1  -0.141543D+02
      2  -0.433717D+01
      3  -0.216039D+01
      4   0.156196D+01
      5  -0.119736D+01
      6  -0.362633D+01
      7  -0.432091D+01
      8  -0.215769D+01
      9  -0.423217D+01
     10  -0.119602D+01
     11   0.184042D+01
     12   0.387523D+01
     13   0.155454D+01
     14  -0.119420D+01
     15   0.183819D+01
     16  -0.362195D+01
     17   0.387207D+01
     18   0.192601D+00
 Property number 6 -- Beta(w,w,-2w) frequency  3    0.042823:
                 1 
      1  -0.143557D+02
      2  -0.438908D+01
      3  -0.218653D+01
      4   0.158685D+01
      5  -0.121554D+01
      6  -0.366993D+01
      7  -0.433590D+01
      8  -0.217763D+01
      9  -0.427538D+01
     10  -0.121117D+01
     11   0.185689D+01
     12   0.390453D+01
[...]
   y         -0.616512D+00     -0.532619D-02     -0.197676D-02
   z          0.622328D+02      0.537643D+00      0.199541D+00
   ||         0.124525D+02      0.107580D+00      0.399271D-01
   xxx       -0.311575D+01     -0.269176D-01     -0.999022D-02
   yxx        0.231334D+01      0.199855D-01      0.741741D-02
   yyx        0.397304D+01      0.343239D-01      0.127390D-01
   zxx        0.174320D+01      0.150599D-01      0.558934D-02
   zyx        0.187770D+01      0.162218D-01      0.602058D-02
   zzx       -0.241214D+00     -0.208390D-02     -0.773420D-03
   xxy        0.230980D+01      0.199549D-01      0.740606D-02
   yxy        0.396857D+01      0.342853D-01      0.127247D-01
   yyy       -0.104834D+01     -0.905687D-02     -0.336137D-02
   zxy        0.187679D+01      0.162140D-01      0.601767D-02
   zyy        0.273960D+01      0.236680D-01      0.878415D-02
   zzy       -0.147975D+01     -0.127839D-01     -0.474461D-02
   xxz        0.174212D+01      0.150506D-01      0.558588D-02
   yxz        0.187284D+01      0.161799D-01      0.600500D-02
   yyz        0.273920D+01      0.236645D-01      0.878286D-02
   zxz       -0.251895D+00     -0.217618D-02     -0.807667D-03
   zyz       -0.146411D+01     -0.126488D-01     -0.469447D-02
   zzz        0.162620D+02      0.140491D+00      0.521417D-01
 Beta(-2w;w,w) w= 1907.0nm:
                  (au)         (10**-30 esu)      (10**-50 SI)
   || (z)     0.124414D+02      0.107484D+00      0.398918D-01
   _|_(z)     0.414762D+01      0.358322D-01      0.132988D-01
   x          0.181738D+01      0.157007D-01      0.582717D-02
   y         -0.616469D+00     -0.532581D-02     -0.197662D-02
   z          0.622072D+02      0.537422D+00      0.199459D+00
   ||         0.124474D+02      0.107536D+00      0.399107D-01
   xxx       -0.311523D+01     -0.269132D-01     -0.998856D-02
   yxx        0.231393D+01      0.199906D-01      0.741931D-02
   zxx        0.174280D+01      0.150564D-01      0.558805D-02
   xyx        0.231063D+01      0.199620D-01      0.740870D-02
   yyx        0.397044D+01      0.343015D-01      0.127307D-01
   zyx        0.187793D+01      0.162238D-01      0.602131D-02
   xyy        0.396626D+01      0.342654D-01      0.127173D-01
   yyy       -0.104791D+01     -0.905316D-02     -0.335999D-02
   zyy        0.273872D+01      0.236604D-01      0.878134D-02
   xzx        0.174178D+01      0.150477D-01      0.558479D-02
   yzx        0.187423D+01      0.161919D-01      0.600947D-02
   zzx       -0.244694D+00     -0.211396D-02     -0.784576D-03
   xzy        0.187339D+01      0.161846D-01      0.600676D-02
   yzy        0.273834D+01      0.236571D-01      0.878010D-02
   zzy       -0.147417D+01     -0.127357D-01     -0.472673D-02
   xzz       -0.254669D+00     -0.220014D-02     -0.816560D-03
   yzz       -0.145957D+01     -0.126095D-01     -0.467990D-02
   zzz        0.162551D+02      0.140432D+00      0.521199D-01
 Beta(-2w;w,w) w= 1064.0nm:
                  (au)         (10**-30 esu)      (10**-50 SI)
   || (z)     0.126030D+02      0.108880D+00      0.404099D-01
   _|_(z)     0.420255D+01      0.363068D-01      0.134749D-01
   x          0.183440D+01      0.158478D-01      0.588175D-02
   y         -0.617787D+00     -0.533720D-02     -0.198085D-02
   z          0.630152D+02      0.544402D+00      0.202049D+00
   ||         0.126090D+02      0.108932D+00      0.404290D-01
   xxx       -0.313137D+01     -0.270526D-01     -0.100403D-01
   yxx        0.233252D+01      0.201511D-01      0.747890D-02
   zxx        0.176705D+01      0.152660D-01      0.566581D-02
   xyx        0.232171D+01      0.200578D-01      0.744426D-02
   yyx        0.400549D+01      0.346043D-01      0.128430D-01
   zyx        0.190286D+01      0.164392D-01      0.610124D-02
   xyy        0.399185D+01      0.344864D-01      0.127993D-01
   yyy       -0.106152D+01     -0.917071D-02     -0.340362D-02
   zyy        0.277087D+01      0.239382D-01      0.888443D-02
   xzx        0.176375D+01      0.152374D-01      0.565520D-02
   yzx        0.189080D+01      0.163350D-01      0.606259D-02
   zzx       -0.247227D+00     -0.213585D-02     -0.792700D-03
   xzy        0.188802D+01      0.163110D-01      0.605366D-02
   yzy        0.276957D+01      0.239269D-01      0.888023D-02
   zzy       -0.148565D+01     -0.128348D-01     -0.476352D-02
   xzz       -0.279859D+00     -0.241776D-02     -0.897328D-03
   yzz       -0.143788D+01     -0.124222D-01     -0.461037D-02
   zzz        0.164702D+02      0.142290D+00      0.528095D-01

 Second dipole hyperpolarizability, Gamma (dipole orientation).
 ||, _|_  isotropic parallel and perpendicular components.
 Values do not include the 1/n! factor of 1/6.
 (esu units = statvolt**-2 cm**5 , SI units = C**4 m**4 J**-3)
 Gamma(0;0,0,0):
               (au)            (10**-36 esu)      (10**-61 SI)
   ||         0.374817D+02      0.188784D-01      0.233712D-01
   _|_        0.124939D+02      0.629279D-02      0.779041D-02
   xxxx       0.968415D+01      0.487761D-02      0.603844D-02
   xxyx      -0.644921D+01     -0.324827D-02     -0.402133D-02
   xxyy       0.453139D+01      0.228232D-02      0.282549D-02
   yxyy      -0.837696D+01     -0.421922D-02     -0.522336D-02
   yyyy       0.577769D+01      0.291005D-02      0.360261D-02
   xxzx      -0.950497D+01     -0.478737D-02     -0.592671D-02
   xxzy       0.414007D+01      0.208523D-02      0.258149D-02
   yxzy      -0.528072D+00     -0.265974D-03     -0.329273D-03
   yyzy       0.409061D+01      0.206031D-02      0.255065D-02
   xxzz       0.109086D+02      0.549433D-02      0.680193D-02
   yxzz      -0.488020D+01     -0.245801D-02     -0.304299D-02
   yyzz       0.157647D+02      0.794021D-02      0.982990D-02
   zxzz      -0.193538D+02     -0.974794D-02     -0.120679D-01
   zyzz       0.245224D+02      0.123512D-01      0.152906D-01
   zzzz       0.109537D+03      0.551704D-01      0.683004D-01
 Gamma(-w;w,0,0) w= 1907.0nm:
                  (au)         (10**-36 esu)      (10**-61 SI)
   ||         0.376456D+02      0.189610D-01      0.234735D-01
   _|_        0.125262D+02      0.630904D-02      0.781054D-02
   xxxx       0.976487D+01      0.491827D-02      0.608877D-02
   yxxx      -0.647435D+01     -0.326094D-02     -0.403701D-02
   yyxx       0.458856D+01      0.231112D-02      0.286114D-02
   zxxx      -0.954215D+01     -0.480609D-02     -0.594989D-02
   zyxx       0.416896D+01      0.209978D-02      0.259950D-02
   zzxx       0.109884D+02      0.553454D-02      0.685170D-02
   xxyx      -0.647657D+01     -0.326205D-02     -0.403839D-02
   yxyx       0.455030D+01      0.229185D-02      0.283729D-02
   yyyx      -0.840164D+01     -0.423165D-02     -0.523874D-02
   zxyx       0.415893D+01      0.209473D-02      0.259325D-02
   zyyx      -0.536409D+00     -0.270173D-03     -0.334471D-03
   zzyx      -0.490371D+01     -0.246985D-02     -0.305765D-02
   xxyy       0.458753D+01      0.231060D-02      0.286050D-02
   yxyy      -0.839719D+01     -0.422941D-02     -0.523597D-02
   yyyy       0.584168D+01      0.294228D-02      0.364251D-02
   zxyy      -0.541425D+00     -0.272699D-03     -0.337599D-03
   zyyy       0.411657D+01      0.207339D-02      0.256684D-02
   zzyy       0.158584D+02      0.798741D-02      0.988834D-02
   xxzx      -0.954377D+01     -0.480691D-02     -0.595090D-02
   yxzx       0.415615D+01      0.209333D-02      0.259152D-02
   yyzx      -0.542001D+00     -0.272989D-03     -0.337958D-03
   zxzx       0.109427D+02      0.551151D-02      0.682319D-02
   zyzx      -0.489772D+01     -0.246683D-02     -0.305391D-02
   zzzx      -0.194249D+02     -0.978375D-02     -0.121122D-01
   xxzy       0.416900D+01      0.209980D-02      0.259953D-02
   yxzy      -0.526304D+00     -0.265083D-03     -0.328170D-03
   yyzy       0.411374D+01      0.207197D-02      0.256508D-02
   zxzy      -0.489563D+01     -0.246578D-02     -0.305261D-02
   zyzy       0.158157D+02      0.796588D-02      0.986168D-02
   zzzy       0.246003D+02      0.123904D-01      0.153392D-01
   xxzz       0.109872D+02      0.553392D-02      0.685094D-02
   yxzz      -0.489232D+01     -0.246411D-02     -0.305055D-02
   yyzz       0.158590D+02      0.798771D-02      0.988870D-02
   zxzz      -0.194235D+02     -0.978301D-02     -0.121113D-01
   zyzz       0.246022D+02      0.123914D-01      0.153404D-01
   zzzz       0.109920D+03      0.553635D-01      0.685395D-01
 Gamma(-w;w,0,0) w= 1064.0nm:
                  (au)         (10**-36 esu)      (10**-61 SI)
   ||         0.380112D+02      0.191451D-01      0.237014D-01
   _|_        0.125981D+02      0.634526D-02      0.785537D-02
   xxxx       0.994492D+01      0.500895D-02      0.620103D-02
   yxxx      -0.653054D+01     -0.328924D-02     -0.407204D-02
   yyxx       0.471604D+01      0.237532D-02      0.294063D-02
   zxxx      -0.962504D+01     -0.484784D-02     -0.600158D-02
   zyxx       0.423285D+01      0.213196D-02      0.263934D-02
   zzxx       0.111658D+02      0.562390D-02      0.696233D-02
   xxyx      -0.653779D+01     -0.329288D-02     -0.407656D-02
   yxyx       0.459236D+01      0.231303D-02      0.286351D-02
   yyyx      -0.845712D+01     -0.425960D-02     -0.527334D-02
   zxyx       0.420030D+01      0.211557D-02      0.261905D-02
   zyyx      -0.554856D+00     -0.279464D-03     -0.345974D-03
   zzyx      -0.495665D+01     -0.249651D-02     -0.309066D-02
   xxyy       0.471282D+01      0.237370D-02      0.293862D-02
   yxyy      -0.844222D+01     -0.425209D-02     -0.526405D-02
   yyyy       0.598437D+01      0.301415D-02      0.373148D-02
   zxyy      -0.571293D+00     -0.287743D-03     -0.356223D-03
   zyyy       0.417450D+01      0.210257D-02      0.260296D-02
   zzyy       0.160679D+02      0.809293D-02      0.100190D-01
   xxzx      -0.963032D+01     -0.485050D-02     -0.600487D-02
   yxzx       0.419128D+01      0.211102D-02      0.261342D-02
   yyzx      -0.572944D+00     -0.288574D-03     -0.357252D-03
   zxzx       0.110180D+02      0.554944D-02      0.687015D-02
   zyzx      -0.493731D+01     -0.248677D-02     -0.307860D-02
   zzzx      -0.195828D+02     -0.986324D-02     -0.122106D-01
   xxzy       0.423363D+01      0.213235D-02      0.263983D-02
   yxzy      -0.522315D+00     -0.263074D-03     -0.325683D-03
   yyzy       0.416539D+01      0.209798D-02      0.259728D-02
   zxzy      -0.493085D+01     -0.248352D-02     -0.307458D-02
   zyzy       0.159298D+02      0.802336D-02      0.993284D-02
   zzzy       0.247760D+02      0.124789D-01      0.154488D-01
   xxzz       0.111622D+02      0.562207D-02      0.696007D-02
   yxzz      -0.491920D+01     -0.247765D-02     -0.306731D-02
   yyzz       0.160691D+02      0.809352D-02      0.100197D-01
   zxzz      -0.195785D+02     -0.986110D-02     -0.122079D-01
   zyzz       0.247799D+02      0.124809D-01      0.154512D-01
   zzzz       0.110775D+03      0.557940D-01      0.690724D-01
 Gamma(-2w;w,w,0) w= 1907.0nm:
                  (au)         (10**-36 esu)      (10**-61 SI)
   ||         0.379759D+02      0.191273D-01      0.236794D-01
   _|_        0.125743D+02      0.633327D-02      0.781054D-02
   xxxx       0.992757D+01      0.500021D-02      0.619022D-02
   yxxx      -0.652285D+01     -0.328536D-02     -0.406724D-02
   zxxx      -0.961540D+01     -0.484299D-02     -0.599557D-02
   xyxx      -0.652961D+01     -0.328877D-02     -0.407146D-02
   yyxx       0.466528D+01      0.234976D-02      0.290898D-02
   zyxx       0.421939D+01      0.212518D-02      0.263095D-02
   xyyx       0.454974D+01      0.229157D-02      0.283694D-02
   yyyx      -0.845176D+01     -0.425689D-02     -0.526999D-02
   zyyx      -0.547417D+00     -0.275717D-03     -0.341335D-03
   xzxx      -0.962034D+01     -0.484547D-02     -0.599865D-02
   yzxx       0.421095D+01      0.212093D-02      0.262569D-02
   zzxx       0.111028D+02      0.559213D-02      0.692300D-02
   xzyx       0.418054D+01      0.210561D-02      0.260672D-02
   yzyx      -0.564311D+00     -0.284226D-03     -0.351870D-03
   zzyx      -0.494551D+01     -0.249091D-02     -0.308372D-02
   xzzx       0.109647D+02      0.552260D-02      0.683693D-02
   yzzx      -0.492746D+01     -0.248181D-02     -0.307246D-02
   zzzx      -0.195676D+02     -0.985559D-02     -0.122011D-01
   xxxy      -0.653146D+01     -0.328970D-02     -0.407261D-02
   yxxy       0.455067D+01      0.229204D-02      0.283752D-02
   zxxy       0.418548D+01      0.210810D-02      0.260981D-02
   xyxy       0.466325D+01      0.234874D-02      0.290771D-02
   yyxy      -0.844731D+01     -0.425465D-02     -0.526722D-02
   zyxy      -0.573388D+00     -0.288798D-03     -0.357529D-03
   xyyy      -0.843321D+01     -0.424755D-02     -0.525843D-02
   yyyy       0.597062D+01      0.300722D-02      0.372291D-02
   zyyy       0.417174D+01      0.210118D-02      0.260124D-02
   xzxy       0.421691D+01      0.212393D-02      0.262940D-02
   yzxy      -0.527633D+00     -0.265752D-03     -0.328999D-03
   zzxy      -0.494341D+01     -0.248984D-02     -0.308240D-02
   xzyy      -0.543070D+00     -0.273528D-03     -0.338625D-03
   yzyy       0.416326D+01      0.209691D-02      0.259595D-02
   zzyy       0.160047D+02      0.806110D-02      0.997957D-02
   xzzy      -0.491947D+01     -0.247779D-02     -0.306748D-02
   yzzy       0.158759D+02      0.799619D-02      0.989920D-02
   zzzy       0.247591D+02      0.124704D-01      0.154382D-01
   xxxz      -0.962155D+01     -0.484608D-02     -0.599940D-02
   yxxz       0.417456D+01      0.210260D-02      0.260300D-02
   zxxz       0.109657D+02      0.552309D-02      0.683753D-02
   xyxz       0.421440D+01      0.212267D-02      0.262784D-02
   yyxz      -0.554347D+00     -0.279208D-03     -0.345656D-03
   zyxz      -0.493547D+01     -0.248585D-02     -0.307746D-02
   xyyz      -0.507168D+00     -0.255445D-03     -0.316239D-03
   yyyz       0.416028D+01      0.209541D-02      0.259410D-02
   zyyz       0.158759D+02      0.799619D-02      0.989920D-02
   xzxz       0.111004D+02      0.559094D-02      0.692153D-02
   yzxz      -0.492437D+01     -0.248026D-02     -0.307053D-02
   zzxz      -0.195662D+02     -0.985489D-02     -0.122003D-01
   xzyz      -0.491849D+01     -0.247729D-02     -0.306686D-02
   yzyz       0.160056D+02      0.806153D-02      0.998010D-02
   zzyz       0.247611D+02      0.124714D-01      0.154395D-01
   xzzz      -0.195624D+02     -0.985297D-02     -0.121979D-01
   yzzz       0.247637D+02      0.124727D-01      0.154411D-01
   zzzz       0.110693D+03      0.557525D-01      0.690210D-01
 Gamma(-2w;w,w,0) w= 1064.0nm:
                  (au)         (10**-36 esu)      (10**-61 SI)
   ||         0.390957D+02      0.196913D-01      0.243776D-01
   _|_        0.127555D+02      0.642456D-02      0.785537D-02
   xxxx       0.104804D+02      0.527865D-02      0.653492D-02
   yxxx      -0.669085D+01     -0.336998D-02     -0.417200D-02
   zxxx      -0.986642D+01     -0.496941D-02     -0.615209D-02
   xyxx      -0.671246D+01     -0.338086D-02     -0.418548D-02
   yyxx       0.496991D+01      0.250319D-02      0.309893D-02
   zyxx       0.439957D+01      0.221593D-02      0.274330D-02
   xyyx       0.459088D+01      0.231229D-02      0.286259D-02
   yyyx      -0.862181D+01     -0.434254D-02     -0.537603D-02
   zyyx      -0.591770D+00     -0.298057D-03     -0.368991D-03
   xzxx      -0.988205D+01     -0.497729D-02     -0.616183D-02
   yzxx       0.437174D+01      0.220191D-02      0.272595D-02
   zzxx       0.115426D+02      0.581363D-02      0.719722D-02
   xzyx       0.427110D+01      0.215122D-02      0.266319D-02
   yzyx      -0.647097D+00     -0.325923D-03     -0.403490D-03
   zzyx      -0.509436D+01     -0.256588D-02     -0.317653D-02
   xzzx       0.110897D+02      0.558553D-02      0.691483D-02
   yzzx      -0.503598D+01     -0.253647D-02     -0.314012D-02
   zzzx      -0.200505D+02     -0.100988D-01     -0.125023D-01
   xxxy      -0.671944D+01     -0.338438D-02     -0.418983D-02
   yxxy       0.459440D+01      0.231406D-02      0.286479D-02
   zxxy       0.428862D+01      0.216005D-02      0.267412D-02
   xyxy       0.496298D+01      0.249970D-02      0.309461D-02
   yyxy      -0.860654D+01     -0.433485D-02     -0.536651D-02
   zyxy      -0.677423D+00     -0.341198D-03     -0.422399D-03
   xyyy      -0.856053D+01     -0.431168D-02     -0.533782D-02
   yyyy       0.640821D+01      0.322762D-02      0.399576D-02
   zyyy       0.435721D+01      0.219460D-02      0.271689D-02
   xzxy       0.439136D+01      0.221180D-02      0.273818D-02
   yzxy      -0.526691D+00     -0.265278D-03     -0.328412D-03
   zzxy      -0.508765D+01     -0.256249D-02     -0.317234D-02
   xzyy      -0.577391D+00     -0.290814D-03     -0.360025D-03
   yzyy       0.432847D+01      0.218012D-02      0.269896D-02
   zzyy       0.165495D+02      0.833548D-02      0.103192D-01
   xzzy      -0.500937D+01     -0.252307D-02     -0.312353D-02
   yzzy       0.161273D+02      0.812284D-02      0.100560D-01
   zzzy       0.252960D+02      0.127408D-01      0.157730D-01
   xxxz      -0.988695D+01     -0.497976D-02     -0.616489D-02
   yxxz       0.425222D+01      0.214171D-02      0.265142D-02
   zxxz       0.110940D+02      0.558769D-02      0.691751D-02
   xyxz       0.438235D+01      0.220726D-02      0.273256D-02
   yyxz      -0.614012D+00     -0.309259D-03     -0.382860D-03
   zyxz      -0.506047D+01     -0.254880D-02     -0.315539D-02
   xyyz      -0.459062D+00     -0.231215D-03     -0.286242D-03
   yyyz       0.431897D+01      0.217533D-02      0.269304D-02
   zyyz       0.161269D+02      0.812264D-02      0.100557D-01
   xzxz       0.115346D+02      0.580960D-02      0.719223D-02
   yzxz      -0.502485D+01     -0.253086D-02     -0.313319D-02
   zzxz      -0.200466D+02     -0.100969D-01     -0.124998D-01
   xzyz      -0.500489D+01     -0.252081D-02     -0.312074D-02
   yzyz       0.165511D+02      0.833629D-02      0.103202D-01
   zzyz       0.253006D+02      0.127431D-01      0.157759D-01
   xzzz      -0.200348D+02     -0.100909D-01     -0.124925D-01
   yzzz       0.253111D+02      0.127484D-01      0.157824D-01
   zzzz       0.113308D+03      0.570700D-01      0.706521D-01

 ----------------------------------------------------------------------
 1\1\GINC-DR24\SP\RHF\STO-3G\C2H3F3O1\PBEAUJEA\30-Jan-2019\0\\#p polar=
 (DCSHG,Cubic) cphf=rdfreq hf/STO-3G nosym\\m\\0,1\C,0,-5.44352,-0.5983
 3,-0.24712\O,0,-4.11804,-0.20642,-0.53738\H,0,-6.11708,-0.13602,-0.997
 43\H,0,-5.73762,-0.22877,0.75852\H,0,-5.60407,-1.69809,-0.32394\C,0,-3
 .19378,-1.14703,-0.03061\F,0,-3.45707,-1.46637,1.29424\F,0,-1.92968,-0
 .59266,-0.09014\F,0,-3.20281,-2.2937,-0.8072\\Version=ES64L-G16RevA.03
 \HF=-444.5357009\RMSD=4.279e-09\Dipole=-0.5979593,-0.1310343,0.0910899
 \Polar=18.1463195,-0.8856718,12.4666223,0.5149219,0.2693242,12.7356711
 \HyperPolar=-14.0209979,-4.3177068,-2.1454391,-4.2128797,1.5513272,-1.
 1895115,1.8333977,-3.6034466,3.8608165,0.1889911\DQPolar=-184.009933,9
 5.4729092,88.5370239,-10.8271276,-14.6946142,1.9605919,36.5099062,-43.
 9624211,7.4525149,-102.0649744,0.4031813,-11.199709,-9.2257693,-3.2898
 007,12.51557,-0.4603837,-108.8120048,-23.1969275\Quadrupole=6.9269727,
 -3.3395726,-3.5874001,1.7153491,-0.3235321,0.1653506\PG=C01 [X(C2H3F3O
 1)]\\@


 WE HAVE SEEN THAT MAN ON THE AVERAGE DOES NOT LIVE ABOVE
 TWO-AND-TWENTY YEARS.  DURING THESE TWO AND TWENTY
 YEARS HE IS LIABLE TO TWO AND TWENTY THOUSAND EVILS,
 MANY OF WHICH ARE INCURABLE.  YET EVEN IN THIS DREADFUL STATE
 MEN STILL STRUT AND POSE ON THE STAGE OF LIFE.
 THEY MAKE LOVE AT THE RISK OF DESTRUCTION,
 INTRIGUE, CARRY ON WAR, AND FORM PROJECTS, JUST AS IF THEY
 WERE TO LIVE IN LUXURY AND HAPPINESS FOR A THOUSAND
 AGES.

                                              -- VOLTAIRE
 Job cpu time:       0 days  0 hours  0 minutes 20.8 seconds.
 Elapsed time:       0 days  0 hours  0 minutes  6.1 seconds.
 File lengths (MBytes):  RWF=     44 Int=      0 D2E=      0 Chk=     39 Scr=      1
 Normal termination of Gaussian 16 at Wed Jan 30 15:52:33 2019.
