m                                                                       
SP        RHF                                                         STO-3G              
Number of atoms                            I                9
Info1-9                                    I   N=           9
          21          21           0           0           0         110
           1           1           2
Full Title                                 C   N=           1
m           
Route                                      C   N=           5
#p polar=(DCSHG,Cubic) cphf=rdfreq hf/STO-3G nosym          
Charge                                     I                0
Multiplicity                               I                1
Number of electrons                        I               50
Number of alpha electrons                  I               25
Number of beta electrons                   I               25
Number of basis functions                  I               33
Number of independent functions            I               33
Number of point charges in /Mol/           I                0
Number of translation vectors              I                0
Atomic numbers                             I   N=           9
           6           8           1           1           1           6
           9           9           9
Nuclear charges                            R   N=           9
  6.00000000E+00  8.00000000E+00  1.00000000E+00  1.00000000E+00  1.00000000E+00
  6.00000000E+00  9.00000000E+00  9.00000000E+00  9.00000000E+00
Current cartesian coordinates              R   N=          27
 -1.02867620E+01 -1.13067983E+00 -4.66989120E-01 -7.78196777E+00 -3.90077267E-01
 -1.01550102E+00 -1.15596059E+01 -2.57040547E-01 -1.88486953E+00 -1.08425304E+01
 -4.32312646E-01  1.43339506E+00 -1.05901575E+01 -3.20892503E+00 -6.12157881E-01
 -6.03536950E+00 -2.16757256E+00 -5.78445167E-02 -6.53291549E+00 -2.77103770E+00
  2.44575914E+00 -3.64656671E+00 -1.11996508E+00 -1.70339913E-01 -6.05243373E+00
 -4.33446481E+00 -1.52538693E+00
Number of symbols in /Mol/                 I                0
Force Field                                I                0
Atom Types                                 C   N=           9
                                                            
                                                
Int Atom Types                             I   N=           9
           0           0           0           0           0           0
           0           0           0
MM charges                                 R   N=           9
  0.00000000E+00  0.00000000E+00  0.00000000E+00  0.00000000E+00  0.00000000E+00
  0.00000000E+00  0.00000000E+00  0.00000000E+00  0.00000000E+00
Integer atomic weights                     I   N=           9
          12          16           1           1           1          12
          19          19          19
Real atomic weights                        R   N=           9
  1.20000000E+01  1.59949146E+01  1.00782504E+00  1.00782504E+00  1.00782504E+00
  1.20000000E+01  1.89984032E+01  1.89984032E+01  1.89984032E+01
Atom fragment info                         I   N=           9
           0           0           0           0           0           0
           0           0           0
Atom residue num                           I   N=           9
           0           0           0           0           0           0
           0           0           0
Nuclear spins                              I   N=           9
           0           0           1           1           1           0
           1           1           1
Nuclear ZEff                               R   N=           9
 -3.60000000E+00 -5.60000000E+00 -1.00000000E+00 -1.00000000E+00 -1.00000000E+00
 -3.60000000E+00 -6.75000000E+00 -6.75000000E+00 -6.75000000E+00
Nuclear ZNuc                               R   N=           9
  6.00000000E+00  8.00000000E+00  1.00000000E+00  1.00000000E+00  1.00000000E+00
  6.00000000E+00  9.00000000E+00  9.00000000E+00  9.00000000E+00
Nuclear QMom                               R   N=           9
  0.00000000E+00  0.00000000E+00  0.00000000E+00  0.00000000E+00  0.00000000E+00
  0.00000000E+00  0.00000000E+00  0.00000000E+00  0.00000000E+00
Nuclear GFac                               R   N=           9
  0.00000000E+00  0.00000000E+00  2.79284600E+00  2.79284600E+00  2.79284600E+00
  0.00000000E+00  2.62886700E+00  2.62886700E+00  2.62886700E+00
MicOpt                                     I   N=           9
          -1          -1          -1          -1          -1          -1
          -1          -1          -1
Number of residues                         I                0
Number of secondary structures             I                0
Number of contracted shells                I               15
Number of primitive shells                 I               45
Pure/Cartesian d shells                    I                0
Pure/Cartesian f shells                    I                0
Highest angular momentum                   I                1
Largest degree of contraction              I                3
Shell types                                I   N=          15
           0          -1           0          -1           0           0
           0           0          -1           0          -1           0
          -1           0          -1
Number of primitives per shell             I   N=          15
           3           3           3           3           3           3
           3           3           3           3           3           3
           3           3           3
Shell to atom map                          I   N=          15
           1           1           2           2           3           4
           5           6           6           7           7           8
           8           9           9
Primitive exponents                        R   N=          45
  7.16168373E+01  1.30450963E+01  3.53051216E+00  2.94124936E+00  6.83483096E-01
  2.22289916E-01  1.30709321E+02  2.38088661E+01  6.44360831E+00  5.03315132E+00
  1.16959612E+00  3.80388960E-01  3.42525091E+00  6.23913730E-01  1.68855404E-01
  3.42525091E+00  6.23913730E-01  1.68855404E-01  3.42525091E+00  6.23913730E-01
  1.68855404E-01  7.16168373E+01  1.30450963E+01  3.53051216E+00  2.94124936E+00
  6.83483096E-01  2.22289916E-01  1.66679134E+02  3.03608123E+01  8.21682067E+00
  6.46480325E+00  1.50228124E+00  4.88588486E-01  1.66679134E+02  3.03608123E+01
  8.21682067E+00  6.46480325E+00  1.50228124E+00  4.88588486E-01  1.66679134E+02
  3.03608123E+01  8.21682067E+00  6.46480325E+00  1.50228124E+00  4.88588486E-01
Contraction coefficients                   R   N=          45
  1.54328967E-01  5.35328142E-01  4.44634542E-01 -9.99672292E-02  3.99512826E-01
  7.00115469E-01  1.54328967E-01  5.35328142E-01  4.44634542E-01 -9.99672292E-02
  3.99512826E-01  7.00115469E-01  1.54328967E-01  5.35328142E-01  4.44634542E-01
  1.54328967E-01  5.35328142E-01  4.44634542E-01  1.54328967E-01  5.35328142E-01
  4.44634542E-01  1.54328967E-01  5.35328142E-01  4.44634542E-01 -9.99672292E-02
  3.99512826E-01  7.00115469E-01  1.54328967E-01  5.35328142E-01  4.44634542E-01
 -9.99672292E-02  3.99512826E-01  7.00115469E-01  1.54328967E-01  5.35328142E-01
  4.44634542E-01 -9.99672292E-02  3.99512826E-01  7.00115469E-01  1.54328967E-01
  5.35328142E-01  4.44634542E-01 -9.99672292E-02  3.99512826E-01  7.00115469E-01
P(S=P) Contraction coefficients            R   N=          45
  0.00000000E+00  0.00000000E+00  0.00000000E+00  1.55916275E-01  6.07683719E-01
  3.91957393E-01  0.00000000E+00  0.00000000E+00  0.00000000E+00  1.55916275E-01
  6.07683719E-01  3.91957393E-01  0.00000000E+00  0.00000000E+00  0.00000000E+00
  0.00000000E+00  0.00000000E+00  0.00000000E+00  0.00000000E+00  0.00000000E+00
  0.00000000E+00  0.00000000E+00  0.00000000E+00  0.00000000E+00  1.55916275E-01
  6.07683719E-01  3.91957393E-01  0.00000000E+00  0.00000000E+00  0.00000000E+00
  1.55916275E-01  6.07683719E-01  3.91957393E-01  0.00000000E+00  0.00000000E+00
  0.00000000E+00  1.55916275E-01  6.07683719E-01  3.91957393E-01  0.00000000E+00
  0.00000000E+00  0.00000000E+00  1.55916275E-01  6.07683719E-01  3.91957393E-01
Coordinates of each shell                  R   N=          45
 -1.02867620E+01 -1.13067983E+00 -4.66989120E-01 -1.02867620E+01 -1.13067983E+00
 -4.66989120E-01 -7.78196777E+00 -3.90077267E-01 -1.01550102E+00 -7.78196777E+00
 -3.90077267E-01 -1.01550102E+00 -1.15596059E+01 -2.57040547E-01 -1.88486953E+00
 -1.08425304E+01 -4.32312646E-01  1.43339506E+00 -1.05901575E+01 -3.20892503E+00
 -6.12157881E-01 -6.03536950E+00 -2.16757256E+00 -5.78445167E-02 -6.03536950E+00
 -2.16757256E+00 -5.78445167E-02 -6.53291549E+00 -2.77103770E+00  2.44575914E+00
 -6.53291549E+00 -2.77103770E+00  2.44575914E+00 -3.64656671E+00 -1.11996508E+00
 -1.70339913E-01 -3.64656671E+00 -1.11996508E+00 -1.70339913E-01 -6.05243373E+00
 -4.33446481E+00 -1.52538693E+00 -6.05243373E+00 -4.33446481E+00 -1.52538693E+00
Num ILSW                                   I              100
ILSW                                       I   N=         100
           0           0           0           1           2           0
           0           0           0           0           0          -1
           5           0           0           0           0           0
           0           0           0           0           0           0
           1           1           0           0           0           0
           0           0      100000           0          -1           0
           0           0           0           0           0           0
           0           0           0           1           0           0
           0 -2000000000           1           0           0           0
           0           0           4          52           0           0
           0           0           0           0           0           0
           0           0           0           9           0           1
           0           0           0           0           0           0
           0           0           0           0           0           0
           0           0           0           0           0           0
           0           0           0           0           0           0
           0           0           0           0
Num RLSW                                   I               52
RLSW                                       R   N=          52
  1.00000000E+00  1.00000000E+00  1.00000000E+00  1.00000000E+00  1.00000000E+00
  0.00000000E+00  0.00000000E+00  1.00000000E+00  0.00000000E+00  0.00000000E+00
  0.00000000E+00  0.00000000E+00  1.00000000E+00  0.00000000E+00  0.00000000E+00
  0.00000000E+00  0.00000000E+00  1.00000000E+00  0.00000000E+00  0.00000000E+00
  0.00000000E+00  0.00000000E+00  1.00000000E+00  0.00000000E+00  0.00000000E+00
  0.00000000E+00  0.00000000E+00  1.00000000E+00  0.00000000E+00  0.00000000E+00
  0.00000000E+00  0.00000000E+00  1.00000000E+00  0.00000000E+00  0.00000000E+00
  0.00000000E+00  0.00000000E+00  0.00000000E+00  1.00000000E+00  1.00000000E+00
  0.00000000E+00  1.00000000E+00  0.00000000E+00  0.00000000E+00  0.00000000E+00
  0.00000000E+00  0.00000000E+00  0.00000000E+00  0.00000000E+00  0.00000000E+00
  0.00000000E+00  0.00000000E+00
MxBond                                     I                4
NBond                                      I   N=           9
           4           2           1           1           1           4
           1           1           1
IBond                                      I   N=          36
           2           3           4           5           1           6
           0           0           1           0           0           0
           1           0           0           0           1           0
           0           0           2           7           8           9
           6           0           0           0           6           0
           0           0           6           0           0           0
RBond                                      R   N=          36
  1.00000000E+00  1.00000000E+00  1.00000000E+00  1.00000000E+00  1.00000000E+00
  1.00000000E+00  0.00000000E+00  0.00000000E+00  1.00000000E+00  0.00000000E+00
  0.00000000E+00  0.00000000E+00  1.00000000E+00  0.00000000E+00  0.00000000E+00
  0.00000000E+00  1.00000000E+00  0.00000000E+00  0.00000000E+00  0.00000000E+00
  1.00000000E+00  1.00000000E+00  1.00000000E+00  1.00000000E+00  1.00000000E+00
  0.00000000E+00  0.00000000E+00  0.00000000E+00  1.00000000E+00  0.00000000E+00
  0.00000000E+00  0.00000000E+00  1.00000000E+00  0.00000000E+00  0.00000000E+00
  0.00000000E+00
Virial Ratio                               R      2.011607001289197E+00
SCF Energy                                 R     -4.445357008547495E+02
Total Energy                               R     -4.445357008547495E+02
RMS Density                                R      4.279237491456597E-09
Job Status                                 I                1
Nuclear derivative order                   I                0
External E-field                           R   N=          35
  0.00000000E+00  0.00000000E+00  0.00000000E+00  0.00000000E+00  0.00000000E+00
  0.00000000E+00  0.00000000E+00  0.00000000E+00  0.00000000E+00  0.00000000E+00
  0.00000000E+00  0.00000000E+00  0.00000000E+00  0.00000000E+00  0.00000000E+00
  0.00000000E+00  0.00000000E+00  0.00000000E+00  0.00000000E+00  0.00000000E+00
  0.00000000E+00  0.00000000E+00  0.00000000E+00  0.00000000E+00  0.00000000E+00
  0.00000000E+00  0.00000000E+00  0.00000000E+00  0.00000000E+00  0.00000000E+00
  0.00000000E+00  0.00000000E+00  0.00000000E+00  0.00000000E+00  0.00000000E+00
IOpCl                                      I                0
IROHF                                      I                0
Alpha Orbital Energies                     R   N=          33
 -2.59813091E+01 -2.59803500E+01 -2.59781393E+01 -2.03198001E+01 -1.13112898E+01
 -1.11204073E+01 -1.60058900E+00 -1.51020730E+00 -1.50640918E+00 -1.34705419E+00
 -9.24901724E-01 -8.03077684E-01 -6.86289583E-01 -6.78429424E-01 -6.71782059E-01
 -5.94901631E-01 -5.57138675E-01 -5.25031780E-01 -5.17302612E-01 -4.95950909E-01
 -4.94286853E-01 -4.76289364E-01 -4.71929758E-01 -4.17817419E-01 -3.90250681E-01
  5.15909611E-01  5.42043034E-01  5.65457832E-01  5.70806800E-01  6.18225699E-01
  6.65110148E-01  6.80515833E-01  7.31804429E-01
Alpha MO coefficients                      R   N=        1089
  1.04356016E-05 -4.15105285E-05 -8.81281885E-05  6.61292437E-05 -4.42083283E-05
 -3.82365452E-05  4.08767703E-04  3.66652764E-04 -2.58875173E-05  8.39204049E-05
 -2.72333993E-05 -1.06138744E-06 -5.01296384E-05  6.46527289E-04 -4.34519320E-03
 -3.62829030E-03 -1.49135141E-03 -8.51706025E-05  8.35172414E-02  2.19699713E-03
  3.27290599E-04  1.95061296E-04 -3.72931747E-04  9.90987321E-01  2.20975315E-02
 -2.49177957E-03 -1.10736560E-03  1.37687685E-04  2.19537259E-02  8.43828420E-04
  2.60006679E-04  2.84425809E-04  1.28909375E-04 -7.45891255E-06  7.19980898E-05
 -2.80042546E-05 -3.12799739E-05 -1.83686842E-05 -2.58668514E-05  2.60858817E-04
 -3.17951898E-05 -1.42216236E-04  3.51011827E-04 -1.84932221E-05 -1.00620184E-04
 -1.95273499E-05  5.40697261E-04 -3.59991442E-03  1.05299095E-03  1.11280948E-03
 -3.77457954E-03  9.90943816E-01  2.19981976E-02  4.69062047E-04  5.86211379E-04
 -2.52266848E-03 -8.41028417E-02 -1.52805443E-03  1.61219928E-05 -3.96618424E-05
  2.65740551E-04  2.24874701E-02  7.63726589E-04 -7.68895719E-05  4.75430527E-05
  3.74823059E-04 -1.77819995E-05  1.19438804E-04  2.77996916E-05 -8.68154653E-05
  4.30683237E-05 -2.65791948E-05  2.81045050E-04  9.07419093E-05 -3.35022019E-04
 -1.52459432E-04  1.16376912E-05 -2.68826505E-05 -1.30873477E-04  5.56979121E-04
 -3.72595891E-03  7.92472201E-05  3.32283537E-03  2.36758858E-03 -2.43365310E-02
 -2.54784412E-04  1.22100464E-06 -2.43168699E-04 -2.04679685E-04 -2.00673910E-02
 -1.21863144E-04 -7.83929490E-05 -2.72807988E-04 -1.67540392E-04  9.94254637E-01
  2.21075546E-02  4.93209666E-06  2.20689584E-03  1.50068006E-03  5.23967289E-04
 -4.44913761E-03 -3.85115708E-03 -1.17800156E-03  8.96263898E-04  9.94162456E-01
  2.59038559E-02 -8.88720770E-04 -3.25235548E-03  1.94021727E-03  2.82267153E-04
  2.40737134E-04  3.20683969E-04  5.43422573E-04 -4.44707603E-03  2.70501735E-03
 -2.87914344E-03  1.55697619E-03 -4.83933603E-05  3.03680596E-04 -1.92364385E-04
  2.05281190E-04 -1.84713399E-04 -5.48987810E-05  3.68436810E-04 -3.16609740E-04
  9.48788310E-05 -8.48896409E-05 -4.55986196E-05  3.07696631E-04 -1.69793921E-04
  2.58214430E-04 -3.03423586E-05 -5.52959408E-04 -6.34924995E-04 -9.86641552E-04
  3.60979342E-04 -2.74961742E-04  4.07136103E-04 -4.27435154E-03 -2.00680665E-03
  1.50003105E-03 -7.76839196E-04 -1.84843113E-04 -5.03203801E-05 -3.70626231E-04
  9.92953413E-01  2.91543658E-02 -2.14443483E-04  2.58396846E-04 -1.61567031E-04
  4.49349973E-04 -4.19847419E-03 -3.82522045E-04 -4.52985633E-04  1.85287609E-03
  4.49847870E-04 -4.25668236E-03  1.76989107E-03  7.71946461E-04 -7.98014075E-05
  4.51219311E-04 -4.23327005E-03 -2.07884250E-05 -1.61991385E-03 -1.08524033E-03
  9.92195886E-01  3.56865151E-02 -4.51304870E-04 -3.94630738E-06 -7.77395811E-05
  4.33882353E-04 -4.56501431E-03  2.78304316E-03  5.14091822E-04 -4.11415087E-04
 -6.71815375E-03 -6.67800258E-03 -6.61215922E-03  8.76125807E-04 -7.65050072E-04
  9.50113157E-04  6.40289356E-06 -5.54697777E-05 -3.07696752E-06  9.78397068E-05
  1.00772321E-04 -2.57527269E-05 -5.90244036E-05  1.64047136E-05 -1.24094261E-04
  5.48910685E-05  6.00660481E-05  8.99687108E-07 -1.85809486E-05  1.42809494E-04
 -5.85072169E-05  4.33455694E-05  6.42187804E-05 -8.43742376E-03  1.79106704E-02
  1.01272480E-02  3.60339252E-04 -3.97307295E-04 -3.63296508E-02  1.17027698E-01
  1.24133085E-02 -2.82041100E-02  1.58280568E-02  1.29314964E-03  2.52962432E-03
  3.99502765E-03 -1.06193423E-01  2.81318297E-01  2.79648528E-02 -2.93774351E-02
  1.65517178E-02 -1.31828134E-01  4.85817125E-01  1.32951211E-02  1.35450944E-02
 -6.28978974E-02 -1.26848364E-01  4.66679922E-01 -5.80135358E-02 -2.91225434E-02
  4.40590819E-03 -1.28569151E-01  4.73292864E-01  1.41487637E-03  5.24278111E-02
  3.83611084E-02 -1.10983951E-03  2.92646121E-03  1.42282835E-03 -3.05738103E-04
  2.99759705E-03  3.87299556E-04 -1.28558775E-03 -2.14390538E-03  3.14427045E-03
  7.84851722E-03  2.36046878E-04  2.18134091E-03 -1.21946835E-03  1.49357439E-03
 -3.69133736E-03 -2.87679262E-02  4.03535708E-02  1.31891243E-01 -1.88909357E-01
  7.18372095E-01  8.09869779E-03  1.78954473E-02 -5.25821179E-02  2.65044028E-02
 -1.00579928E-01  6.35896367E-03  7.27423043E-03  1.04303868E-02  1.66296991E-01
 -6.31691809E-01 -1.32245810E-03 -4.50374299E-02 -2.33963573E-02  2.50700318E-03
 -4.83267340E-03 -2.22118579E-03  6.83520064E-04 -2.16694878E-04  1.36207347E-03
 -4.85393935E-03  7.12228013E-03  6.79656365E-03 -5.75180038E-04 -3.51564359E-04
 -1.42502766E-03 -2.51087045E-03 -9.63156204E-04  1.91040254E-03  1.02027808E-01
  9.83470453E-02 -7.33710563E-03  7.92773073E-02 -3.01841781E-01  4.25044164E-03
  1.78233827E-03  2.51101361E-02 -2.06669422E-01  7.85234877E-01 -5.81099901E-02
 -2.24354310E-02  3.21162457E-03  1.22820229E-01 -4.67145414E-01  9.06570462E-03
 -2.68965440E-02 -2.48046716E-02 -7.45978486E-02  1.86701388E-01  8.97168532E-02
  1.95560379E-02 -1.63992673E-02 -2.17684169E-01  7.79518215E-01 -2.68264380E-02
 -9.70578578E-02  5.79694153E-02  2.05148041E-02  2.04811908E-02  2.04347306E-02
 -4.33245680E-02  1.08848967E-01 -9.91171062E-02  9.25768607E-02 -4.87469796E-02
  3.92369666E-02 -1.56351668E-01 -1.28221491E-02  1.12358652E-02 -6.52998840E-03
  3.28742007E-02 -1.30671954E-01 -1.12471535E-02  1.07591959E-02 -5.72603885E-03
  3.86935882E-02 -1.54070110E-01 -1.25421314E-02  1.14455321E-02 -5.63257338E-03
 -1.92966177E-01  5.79094970E-01 -3.27634202E-02  1.73448186E-03 -2.88964286E-03
  3.50675865E-02 -1.48199412E-01 -2.53121153E-01  4.07660144E-02 -1.27239833E-02
  1.67821626E-01  1.60144440E-01  1.60933414E-01  9.13199205E-02 -3.03710831E-01
  5.85223351E-02 -9.69566282E-02  5.15656056E-02 -2.22943568E-02  1.03410686E-01
 -1.58240483E-02 -3.35317053E-02  6.50650071E-02 -3.73343862E-02  1.71493281E-01
  1.07967617E-01  8.50184252E-03  1.19861985E-02 -2.63022575E-02  1.21262165E-01
  2.78203599E-03 -7.89858078E-02 -2.38273414E-02 -6.84208372E-02  2.06663600E-01
 -1.21315250E-01 -8.69574774E-02  4.86236818E-02  7.96136455E-02 -3.51642761E-01
  7.44815481E-02 -1.25070483E-01  6.66931316E-02  7.40138989E-02  9.41018406E-02
  1.25320635E-01 -1.55986878E-01  5.48154715E-01  3.46560412E-02 -8.60312679E-02
  4.61505219E-02  6.49146957E-02 -3.10935399E-01  6.00919318E-02  4.00599005E-02
 -2.77829567E-01  5.53323563E-02 -2.64402135E-01 -2.08798000E-01 -1.33729659E-01
  2.92533651E-02  6.31199045E-02 -3.02373263E-01  8.69351352E-03  2.11962190E-01
  1.82630543E-01  9.11493736E-03 -1.86927372E-02  6.51130146E-02  2.22293568E-01
 -9.94638115E-02 -4.98167661E-02  2.38274432E-01 -1.97775215E-01  2.53095907E-01
 -8.19049245E-02  6.25088191E-02 -4.19570093E-02 -1.74628658E-01 -4.39310588E-03
  2.11944352E-02  3.77744448E-01 -1.33672031E-01  1.44018791E-01  1.18199708E-02
 -6.11305569E-02  3.17953042E-01 -5.27700431E-02 -4.50577583E-02  3.77456916E-02
 -1.91659252E-01 -1.47992421E-01 -2.75879102E-01  1.22059062E-01  3.33615178E-03
 -1.78432392E-02  2.81237303E-01 -5.00500914E-02  1.24801102E-01  2.86048696E-03
 -7.31357276E-03  5.33818514E-03 -4.86346038E-02 -1.50287112E-01 -9.52283791E-03
  4.54725114E-02 -3.97410115E-02 -1.05369569E-01 -2.75268866E-01  4.48636830E-02
 -1.02974299E-01  3.18926092E-02  6.33172480E-04 -1.78768315E-03  5.00840909E-02
 -2.47654956E-01 -3.76014195E-01 -4.01600539E-02  2.03364771E-01 -4.98169158E-02
 -3.08514535E-01  2.10008048E-01 -5.06062046E-03  2.55793555E-02  9.30546872E-02
 -1.53872595E-01 -2.72898785E-01  5.26948693E-02 -2.67469545E-01  3.65235669E-02
  3.79360758E-01  9.70329879E-02  2.65154421E-02 -7.46227038E-02  2.08991130E-01
  1.83432723E-03 -2.45730076E-02 -6.13995755E-03  2.81417751E-02 -2.25707326E-01
 -5.93167300E-02  3.70777522E-02 -1.08856588E-01 -9.24474668E-02 -4.64869201E-02
  4.02322845E-03 -1.28342061E-02 -2.21256569E-01 -3.35202637E-01  2.01181679E-01
  3.75971155E-02 -1.91419187E-01 -6.26624254E-02 -1.38831724E-01 -3.34934696E-01
 -4.52415694E-02  2.29654081E-01  3.67549874E-01 -1.55836927E-02  1.25574209E-01
  1.98306776E-02 -1.00860156E-01 -1.64193933E-01 -3.22164701E-02  3.01102212E-01
 -1.75989615E-03  8.26973224E-03  4.62679522E-02  2.36983691E-01  4.27646766E-01
  3.92124954E-03 -1.95112313E-02 -1.12400079E-02  1.39231368E-01  2.83698582E-01
 -1.63647531E-01  3.57767944E-01 -2.12930674E-01 -1.51606907E-03  5.88063967E-03
 -6.85361388E-03 -7.95144212E-02 -1.22366065E-01 -8.01380476E-03  4.36375144E-02
 -2.09308995E-01 -9.50625038E-02  5.12057872E-02 -3.38963300E-03  1.76128983E-02
  6.73580887E-02 -8.90290515E-02 -2.25688671E-01  1.34757346E-02 -7.16709246E-02
  1.42036533E-01  1.51295655E-01  6.39164189E-02  6.92596435E-03 -4.19043806E-02
 -3.33595761E-01  3.40033644E-01 -1.46787105E-01 -1.16867876E-02  5.85109744E-02
  2.07840635E-01  1.89333720E-01 -1.00062570E-01  3.67521929E-01  4.86075221E-02
 -2.37083830E-01 -1.59129761E-02  6.61570444E-02 -1.50089150E-01 -2.58844584E-02
  4.43987048E-03  5.48130661E-03 -3.06317670E-02 -1.00149325E-01 -1.30033548E-01
 -1.55705292E-01 -1.11732339E-02  5.96551222E-02  1.35987786E-02  3.04580831E-01
 -6.50869045E-02  4.44597841E-03 -2.43784139E-02 -2.40575336E-01 -5.43441810E-03
  1.50316564E-01 -2.52488404E-03  1.63808153E-02  6.37195077E-02  2.16193113E-01
 -1.22400969E-01  3.13892092E-02 -1.60177702E-01 -1.88515193E-01 -1.16387721E-01
  1.46946862E-02  1.32047686E-01 -3.83104855E-02 -2.02157295E-01 -1.53582363E-02
  6.25532515E-02 -6.72307733E-02 -1.30996737E-02 -9.48018167E-03  4.12804164E-03
 -2.17493351E-02 -1.17800203E-01  5.58464776E-01  1.21244881E-02 -3.37420877E-03
  1.78238208E-02  1.55486034E-01 -2.19368694E-01  1.19395430E-01  5.25708619E-03
 -2.76741518E-02 -1.33471538E-01  4.03179846E-01 -3.94055543E-01 -1.65542894E-03
  2.66407606E-03  2.20999643E-03  3.09811547E-02  1.63524554E-01 -3.54259422E-03
  1.89033439E-02  2.47455486E-02 -8.30905411E-04  1.04824599E-02 -9.68652742E-02
  1.39820267E-01 -2.10556106E-02  2.98976273E-03 -1.27358754E-02  6.85660788E-03
 -2.88401595E-02 -5.57509007E-02 -5.33468430E-03  2.83681347E-02  5.87777021E-01
 -2.55655811E-01  1.63701446E-01 -1.02172501E-03  5.52126936E-03  6.90377358E-03
  6.69273887E-02  3.45398473E-01  4.96792531E-03 -2.63429350E-02 -5.27268247E-01
  2.21031307E-01 -1.65953909E-01 -1.58348478E-02  7.57576041E-02  2.64342491E-01
  9.50313987E-02 -7.72671450E-02  4.50054195E-02 -2.29591116E-01 -3.59051443E-01
 -1.51285894E-01  1.07255706E-01 -3.41102946E-02 -8.25728844E-02 -1.05104110E-01
 -1.02165824E-02  4.29165558E-02  4.02530769E-02  5.07656356E-03 -8.81163579E-04
  2.24417932E-03 -1.12696420E-02  6.37018539E-02 -9.96745241E-02 -7.10911775E-02
  5.53755738E-03 -3.08401319E-02 -4.09967315E-01  6.21832024E-01 -2.31625543E-01
  2.32849771E-03 -1.21286940E-02  4.57872361E-02  1.36602211E-01 -9.32527455E-02
  2.17592587E-03 -9.09015246E-03 -3.88463051E-02 -1.75451814E-02 -2.78742640E-03
 -6.25112505E-03  3.17848628E-02  4.99577956E-02  1.77667539E-02 -2.79134081E-02
  1.58350022E-02 -1.23097199E-03  1.16611333E-02  1.29525146E-03 -5.40383145E-03
 -3.52401947E-03  1.02839564E-02  1.57191442E-02  1.44280688E-03 -7.09617855E-03
 -3.41338719E-01 -4.53781147E-01 -1.94982560E-01 -1.32744083E-04  9.04343163E-04
 -8.99370297E-03  8.57615082E-02  5.53077176E-01 -2.74220420E-03  1.38153577E-02
  3.58588958E-01  2.13214675E-01 -3.96753563E-01 -4.05871002E-04  1.49477366E-03
  1.87004690E-03  1.30594890E-02  4.81797520E-02 -5.18215885E-04  2.64255551E-03
  1.81137652E-03 -6.52724883E-02 -1.02491213E-01 -2.95953101E-02  6.14976568E-02
 -3.00738917E-02  4.38621026E-04 -2.21984776E-03 -6.37625601E-03 -7.86469251E-02
 -1.36725971E-01 -1.18000438E-02  6.28110735E-02 -8.45741487E-02  3.39121821E-01
  3.70089620E-01 -3.52542249E-03  1.87651295E-02 -3.32241167E-02  3.32838606E-01
  5.21971549E-01  1.50718069E-02 -8.00233688E-02  1.94897512E-01  8.76567954E-02
  5.14432889E-01  2.73480429E-03 -1.79716742E-02 -1.20368066E-01 -3.35268100E-02
  2.16491728E-02 -9.72593452E-03  5.15703125E-02  1.54655616E-01 -4.26628325E-02
  1.66465835E-02  3.51508075E-02  2.70356737E-02  1.29749538E-02  1.77166116E-03
 -9.90053993E-03 -1.72010342E-01 -6.38575252E-02  4.56492162E-02  8.55378302E-03
 -4.60589821E-02  5.35759367E-01  1.30942114E-01 -1.03058063E-01 -1.97678653E-02
  1.05969115E-01  4.01691497E-01  2.59224068E-01 -1.72495488E-01  2.10640322E-03
 -1.16473724E-02  5.45936234E-01  1.63254282E-01 -1.29086022E-01  1.10788561E-02
 -4.18722666E-02 -2.00888362E-02 -1.81293460E-01  1.10934905E-01 -5.21642535E-02
  2.72239325E-01 -6.99535422E-04  5.66470324E-01 -3.11695752E-01 -2.02586267E-01
  4.04486140E-02  2.26791590E-01  2.17819469E-02 -7.35247073E-02  1.36347795E-01
 -1.76545159E-01  9.13054305E-02  6.16725002E-03 -3.35036260E-02 -1.31807488E-01
  2.75702432E-01 -2.02906181E-01 -1.83226353E-04 -1.34721682E-05 -7.77036223E-02
  2.37049512E-01 -1.08663215E-01  5.12858724E-03 -2.83076303E-02 -1.49779387E-01
  2.98847251E-01 -1.03353912E-01  1.15794631E-03 -5.22907200E-03 -8.23273453E-03
 -8.79209251E-02 -1.81651142E-01  1.35117786E-03 -7.26489249E-03  2.58945565E-02
  4.25877309E-01  7.54486880E-01  1.29022821E-01 -2.97273412E-01  1.66970671E-01
 -8.02957793E-04  3.11295646E-03 -8.43939961E-03 -1.30810786E-02 -3.34874800E-02
 -3.41721520E-03  1.78660631E-02 -3.41303904E-03 -4.38920045E-02  1.90235473E-01
 -6.72280949E-04  4.01078069E-03  5.58531694E-02  7.85297665E-03  3.66888944E-02
  3.61010026E-03 -1.94873354E-02 -2.30587376E-02  2.21852726E-01  9.41156098E-02
  7.47466027E-02 -3.74003321E-01 -5.44686185E-01 -2.51754589E-01  2.12919825E-01
 -1.03012467E-01  6.36073255E-01 -1.73049587E-01 -3.09973710E-01  1.78813361E-01
  1.79050477E-01 -2.61743108E-02 -1.07895497E-01  6.43274742E-02 -3.19994426E-01
 -2.46234817E-01 -6.23934496E-01  3.84846626E-01  2.04330690E-02 -1.30788389E-01
 -2.03206208E-02  5.42243090E-02  2.35598566E-01 -4.50478441E-02  2.74668246E-01
 -4.65666873E-01 -8.84052385E-02 -6.04520089E-02  4.87258095E-03 -3.42373956E-02
  4.46014594E-02  3.13866685E-02 -1.48190318E-01  1.16946602E-02 -7.52761084E-02
  1.29407722E-01  2.35880533E-01 -4.50061665E-02  6.23169800E-02 -3.79668268E-01
 -1.21690840E-01  4.05425936E-01 -2.30737298E-01 -4.73028778E-02  1.44030266E-02
  2.26262292E-01 -1.79789960E-01  8.87056136E-01 -5.35753747E-01 -2.73632800E-01
  9.09483148E-02  5.27368510E-02 -3.17145880E-01 -8.32149620E-04 -7.07376894E-02
  5.34900468E-01 -7.22470166E-04  1.39865295E-02 -1.13434195E-02  7.04938461E-03
 -1.45342638E-02  4.87654658E-02 -2.92463801E-01  1.10827778E-01 -3.70377017E-01
 -3.16834086E-01 -1.28998150E-03  6.26545688E-03  1.10790767E-02 -1.25522790E-01
 -1.63903953E-01  5.30988969E-03 -3.11935787E-02 -2.12700858E-02 -6.04293014E-02
 -1.97542660E-01 -6.24834297E-02  1.88788897E-01 -1.26737947E-01 -2.22694322E-02
  1.09417004E-01  2.21672760E-02  4.86063742E-01  9.04386188E-01  5.04775147E-02
 -3.12749870E-01 -1.27039035E-01 -2.47487920E-01  4.32004775E-01  1.54621750E-02
 -9.52518042E-02  1.67768601E-01 -2.37622943E-02 -1.93561935E-01 -5.18324835E-02
  3.23806916E-01 -1.50397666E-03  4.72509283E-01  2.04329452E-01 -8.51418545E-03
  5.58961270E-02 -5.15603265E-03 -1.91301013E-01  7.45471012E-02 -3.87545240E-02
  2.54953983E-01  1.37149980E-01 -2.43630376E-01  1.58768402E-01  1.23771601E-01
 -2.68055847E-02 -1.93026179E-01 -9.92285043E-02  4.61979930E-01  8.42520505E-01
 -3.98459431E-01  1.32658043E-01  2.36763598E-02 -1.40370098E-01 -2.11390713E-01
  2.27536686E-02  2.05538031E-01  5.78094303E-02 -3.53565931E-01  4.62519389E-01
  3.55242174E-01 -5.46604993E-02  3.51944473E-02 -2.12650445E-01 -1.74760272E-01