no-field                                                                
SP        RHF                                                         Gen                 
Number of atoms                            I                3
Info1-9                                    I   N=           9
          70          70           0           0           0         111
           1           1           2
Charge                                     I                0
Multiplicity                               I                1
Number of electrons                        I               10
Number of alpha electrons                  I                5
Number of beta electrons                   I                5
Number of basis functions                  I               42
Number of independent functions            I               42
Number of point charges in /Mol/           I                0
Number of translation vectors              I                0
Atomic numbers                             I   N=           3
           8           1           1
Nuclear charges                            R   N=           3
  8.00000000E+00  1.00000000E+00  1.00000000E+00
Current cartesian coordinates              R   N=           9
  0.00000000E+00  0.00000000E+00  2.15299938E-01  0.00000000E+00 -1.42474515E+00
 -8.61199732E-01  0.00000000E+00  1.42474515E+00 -8.61199732E-01
Force Field                                I                0
Int Atom Types                             I   N=           3
           0           0           0
MM charges                                 R   N=           3
  0.00000000E+00  0.00000000E+00  0.00000000E+00
Integer atomic weights                     I   N=           3
          16           1           1
Real atomic weights                        R   N=           3
  1.59949146E+01  1.00782504E+00  1.00782504E+00
Atom fragment info                         I   N=           3
           0           0           0
Atom residue num                           I   N=           3
           0           0           0
Nuclear spins                              I   N=           3
           0           1           1
Nuclear ZEff                               R   N=           3
 -5.60000000E+00 -1.00000000E+00 -1.00000000E+00
Nuclear ZNuc                               R   N=           3
  8.00000000E+00  1.00000000E+00  1.00000000E+00
Nuclear QMom                               R   N=           3
  0.00000000E+00  0.00000000E+00  0.00000000E+00
Nuclear GFac                               R   N=           3
  0.00000000E+00  2.79284600E+00  2.79284600E+00
MicOpt                                     I   N=           3
          -1          -1          -1
Number of contracted shells                I               20
Number of primitive shells                 I               40
Pure/Cartesian d shells                    I                0
Pure/Cartesian f shells                    I                0
Highest angular momentum                   I                2
Largest degree of contraction              I                5
Shell types                                I   N=          20
           0           0           0           0           0           1
           1           1          -2          -2           0           0
           0           1           1           0           0           0
           1           1
Number of primitives per shell             I   N=          20
           5           2           1           1           1           4
           1           1           2           2           4           1
           1           2           2           4           1           1
           2           2
Shell to atom map                          I   N=          20
           1           1           1           1           1           1
           1           1           1           1           2           2
           2           2           2           3           3           3
           3           3
Primitive exponents                        R   N=          40
  1.06622850E+04  1.59970970E+03  3.64725260E+02  1.03651790E+02  3.39058050E+01
  1.22874690E+01  4.75680500E+00  1.00427100E+00  3.00686000E-01  9.00300000E-02
  3.48564630E+01  7.84313100E+00  2.30624900E+00  7.23164000E-01  2.14882000E-01
  6.38500000E-02  2.30620000E+00  7.23200000E-01  2.14900000E-01  6.39000000E-02
  3.38650140E+01  5.09478800E+00  1.15878600E+00  3.25840000E-01  1.02741000E-01
  3.24000000E-02  1.15880000E+00  3.25800000E-01  1.02700000E-01  3.24000000E-02
  3.38650140E+01  5.09478800E+00  1.15878600E+00  3.25840000E-01  1.02741000E-01
  3.24000000E-02  1.15880000E+00  3.25800000E-01  1.02700000E-01  3.24000000E-02
Contraction coefficients                   R   N=          40
  1.90604745E-03  1.46782352E-02  7.43263084E-02  2.75759025E-01  7.19364732E-01
  6.69996511E-01  3.66229217E-01  1.00000000E+00  1.00000000E+00  1.00000000E+00
  1.99439284E-02  1.25155543E-01  3.92261182E-01  6.27670401E-01  1.00000000E+00
  1.00000000E+00  2.83613619E-01  8.10264660E-01  6.73833443E-01  4.58004278E-01
  8.76044950E-03  6.54232910E-02  2.92851374E-01  7.27211150E-01  1.00000000E+00
  1.00000000E+00  1.86447366E-01  8.73088966E-01  9.76214574E-01  3.48056130E-02
  8.76044950E-03  6.54232910E-02  2.92851374E-01  7.27211150E-01  1.00000000E+00
  1.00000000E+00  1.86447366E-01  8.73088966E-01  9.76214574E-01  3.48056130E-02
Coordinates of each shell                  R   N=          60
  0.00000000E+00  0.00000000E+00  2.15299938E-01  0.00000000E+00  0.00000000E+00
  2.15299938E-01  0.00000000E+00  0.00000000E+00  2.15299938E-01  0.00000000E+00
  0.00000000E+00  2.15299938E-01  0.00000000E+00  0.00000000E+00  2.15299938E-01
  0.00000000E+00  0.00000000E+00  2.15299938E-01  0.00000000E+00  0.00000000E+00
  2.15299938E-01  0.00000000E+00  0.00000000E+00  2.15299938E-01  0.00000000E+00
  0.00000000E+00  2.15299938E-01  0.00000000E+00  0.00000000E+00  2.15299938E-01
  0.00000000E+00 -1.42474515E+00 -8.61199732E-01  0.00000000E+00 -1.42474515E+00
 -8.61199732E-01  0.00000000E+00 -1.42474515E+00 -8.61199732E-01  0.00000000E+00
 -1.42474515E+00 -8.61199732E-01  0.00000000E+00 -1.42474515E+00 -8.61199732E-01
  0.00000000E+00  1.42474515E+00 -8.61199732E-01  0.00000000E+00  1.42474515E+00
 -8.61199732E-01  0.00000000E+00  1.42474515E+00 -8.61199732E-01  0.00000000E+00
  1.42474515E+00 -8.61199732E-01  0.00000000E+00  1.42474515E+00 -8.61199732E-01
Constraint Structure                       R   N=           9
  0.00000000E+00  0.00000000E+00  2.15299938E-01  0.00000000E+00 -1.42474515E+00
 -8.61199732E-01  0.00000000E+00  1.42474515E+00 -8.61199732E-01
Num ILSW                                   I              100
ILSW                                       I   N=         100
           0           0           0           0           2           0
           0           0           0           0           0          -1
           0           0           0           0           0           0
           0           0           0           0           0           0
           1           1           0           0           0           0
           0           0      100000           0          -1           0
           0           0           0           0           0           0
           0           0           0           1           0           0
           0           0           1           0           0           0
           0           0           4          41           0           0
           0           0           0           0           0           0
           0           0           0           3           0           0
           0           0           0           0           0           0
           0           0           0           0           0           0
           0           0           0           0           0           0
           0           0           0           0           0           0
           0           0           0           0
Num RLSW                                   I               41
RLSW                                       R   N=          41
  1.00000000E+00  1.00000000E+00  1.00000000E+00  1.00000000E+00  1.00000000E+00
  0.00000000E+00  0.00000000E+00  1.00000000E+00  0.00000000E+00  0.00000000E+00
  0.00000000E+00  0.00000000E+00  1.00000000E+00  0.00000000E+00  0.00000000E+00
  0.00000000E+00  0.00000000E+00  1.00000000E+00  0.00000000E+00  0.00000000E+00
  0.00000000E+00  0.00000000E+00  1.00000000E+00  0.00000000E+00  0.00000000E+00
  0.00000000E+00  0.00000000E+00  1.00000000E+00  0.00000000E+00  0.00000000E+00
  0.00000000E+00  0.00000000E+00  1.00000000E+00  0.00000000E+00  0.00000000E+00
  0.00000000E+00  0.00000000E+00  0.00000000E+00  1.00000000E+00  1.00000000E+00
  0.00000000E+00
MxBond                                     I                2
NBond                                      I   N=           3
           2           1           1
IBond                                      I   N=           6
           2           3           1           0           1           0
RBond                                      R   N=           6
  1.00000000E+00  1.00000000E+00  1.00000000E+00  0.00000000E+00  1.00000000E+00
  0.00000000E+00
Virial Ratio                               R      2.000320447259675E+00
SCF Energy                                 R     -7.605327197566921E+01
Total Energy                               R     -7.605327197566921E+01
RMS Density                                R      9.085558924218543E-12
External E-field                           R   N=          35
  0.00000000E+00  0.00000000E+00  0.00000000E+00  0.00000000E+00  0.00000000E+00
  0.00000000E+00  0.00000000E+00  0.00000000E+00  0.00000000E+00  0.00000000E+00
  0.00000000E+00  0.00000000E+00  0.00000000E+00  0.00000000E+00  0.00000000E+00
  0.00000000E+00  0.00000000E+00  0.00000000E+00  0.00000000E+00  0.00000000E+00
  0.00000000E+00  0.00000000E+00  0.00000000E+00  0.00000000E+00  0.00000000E+00
  0.00000000E+00  0.00000000E+00  0.00000000E+00  0.00000000E+00  0.00000000E+00
  0.00000000E+00  0.00000000E+00  0.00000000E+00  0.00000000E+00  0.00000000E+00
IOpCl                                      I                0
IROHF                                      I                0
Alpha Orbital Energies                     R   N=          42
 -2.05649577E+01 -1.35862886E+00 -7.29121926E-01 -5.85888702E-01 -5.10803108E-01
  4.06993902E-02  5.85678453E-02  1.38017418E-01  1.72109423E-01  2.12500685E-01
  2.18834264E-01  2.47962406E-01  2.82215865E-01  2.95573729E-01  3.28456559E-01
  3.87161267E-01  4.04407574E-01  4.79589361E-01  5.28753288E-01  5.99812511E-01
  6.53342675E-01  6.98321310E-01  7.59056765E-01  8.36455437E-01  9.09102975E-01
  9.61739206E-01  1.13156520E+00  1.18099070E+00  1.23526013E+00  1.26588128E+00
  1.41683165E+00  1.48360636E+00  1.71370844E+00  2.01661250E+00  2.03445801E+00
  2.12756093E+00  2.77917466E+00  2.87666844E+00  2.93500014E+00  3.37921215E+00
  3.75846324E+00  4.37838172E+01
Alpha MO coefficients                      R   N=        1764
  4.19135680E-01  6.63586015E-01  1.48173035E-02 -3.59475661E-03 -6.49724253E-03
  7.08818694E-17 -4.02754400E-16 -1.49554330E-03  2.13842396E-17  2.92538833E-14
  1.31329408E-03  4.29259988E-18  4.48463811E-14  3.69812707E-05 -4.78323836E-05
  4.42164071E-17 -2.04189206E-15 -6.78636228E-07 -6.46168297E-16  1.82228125E-04
  3.03533342E-17 -9.45941595E-15  1.80005859E-04 -1.16122546E-15  1.05762933E-04
  3.59715907E-03  2.04212204E-04  6.75747654E-16 -3.69490300E-04 -3.30086173E-04
  2.96788598E-16  1.12684243E-03  1.19472727E-03  1.05762933E-04  3.59715907E-03
  2.04212204E-04 -6.45189726E-16  3.69490300E-04 -3.30086173E-04 -2.93224684E-16
 -1.12684243E-03  1.19472727E-03 -9.23613437E-02 -2.36517774E-01  4.97802193E-01
  2.84994326E-01 -1.99833483E-01  6.68367922E-16  3.93816859E-15 -9.25453581E-02
  7.89631180E-16 -3.42167671E-14  9.13148546E-02  1.21236567E-15 -1.02096943E-14
  5.81789120E-02  3.08913055E-03 -1.02081147E-16  2.17863679E-15 -8.14622838E-03
  1.11554702E-16 -1.45199504E-02 -5.53321067E-16  1.53442917E-14  3.42850122E-02
  4.27556129E-16  2.44063688E-01  1.17251339E-01 -1.77651963E-03 -3.80297592E-16
  5.94535301E-02  3.52567089E-02 -1.42856137E-15 -1.10380071E-02 -1.91788907E-02
  2.44063688E-01  1.17251339E-01 -1.77651963E-03  2.06785873E-16 -5.94535301E-02
  3.52567089E-02 -1.47107635E-16  1.10380071E-02 -1.91788907E-02  1.24193781E-15
  5.81316684E-15 -6.00985202E-14  3.58375413E-13  4.01485710E-12 -3.35956079E-15
  5.73258101E-01  1.20062686E-14 -1.95829073E-15  3.35497523E-02 -3.57585598E-13
  1.26580788E-17 -8.73796067E-02 -4.11049381E-13  9.03148726E-15 -8.78668135E-17
 -3.72412588E-02 -5.55628978E-15 -6.15709178E-17 -1.14128879E-13  2.30538487E-16
  6.30265188E-02 -1.66914030E-13  6.33942844E-16 -3.98720985E-01 -2.37716359E-01
 -4.35156459E-02  2.54054361E-16 -3.73254178E-02 -4.98236345E-02  3.49777891E-16
 -1.92438496E-02  3.88984410E-03  3.98720985E-01  2.37716359E-01  4.35156459E-02
  2.90154839E-17 -3.73254178E-02  4.98236345E-02 -6.42265135E-16 -1.92438496E-02
 -3.88984410E-03 -3.00306606E-02 -7.69307896E-02  1.62571512E-01  3.50169930E-01
  1.45798232E-01  2.15071226E-15  7.66131786E-16  6.32484030E-01  1.02378004E-15
  2.64832386E-14  2.06548337E-01  7.76008946E-18  1.23812727E-13  8.29413666E-03
 -2.20174705E-02 -1.81427211E-16  1.01607619E-15  5.26561243E-03 -2.59545603E-16
  5.26790577E-04  6.11511183E-17 -8.12356426E-15 -9.97439783E-03 -2.36645875E-16
 -2.41483618E-01 -7.54610678E-02  4.51331093E-04  1.61453425E-16 -4.58825364E-02
  5.76760931E-03  8.85158110E-16  9.13629701E-03  1.03039762E-02 -2.41483618E-01
 -7.54610678E-02  4.51331093E-04 -1.24649582E-16  4.58825364E-02  5.76760931E-03
 -7.12310578E-16 -9.13629701E-03  1.03039762E-02  2.06113231E-16  5.37313166E-16
 -1.02790256E-15 -5.01043027E-15 -2.74901950E-14  7.20626991E-01  1.04014998E-15
 -1.15645851E-15  3.41765918E-01  5.92405589E-15  9.72984395E-16  6.69406352E-02
  1.07913596E-14  4.15007829E-15 -3.45036836E-16 -2.07485424E-02 -3.33068396E-17
  9.78992445E-20  1.61085385E-16  9.15020997E-17 -1.16499490E-02 -2.92900102E-15
 -1.94912474E-16  1.11301758E-14  6.05307563E-16  3.07542032E-14  4.63171595E-15
  4.49358500E-02  1.57691425E-15  1.09959171E-15 -1.22031208E-02  2.48236043E-15
  4.87728545E-15  1.56007126E-15 -3.08042420E-16 -3.43841387E-15  4.49358500E-02
 -7.07743773E-16 -1.03354904E-16 -1.22031208E-02 -7.29955041E-16  1.30506869E-15
 -1.27901703E-02 -3.40048504E-02  8.60747985E-02  3.39777767E-02  1.78227079E+00
 -9.31931205E-17  2.30117616E-13 -6.86106299E-02 -8.03077879E-16 -2.08981300E-12
 -8.18456815E-02 -3.02305508E-15  1.75655300E-14 -8.90275461E-03  5.61067977E-03
 -1.77045690E-16  8.28816422E-14 -1.00197677E-03  4.34810941E-16 -5.26555916E-02
  6.37116486E-16  4.41223674E-13  3.19639531E-03 -1.35498494E-15 -1.20521673E-02
 -4.58006505E-01 -8.29349487E-01 -9.80131237E-17  3.27190288E-02  1.42408201E-02
  4.70047362E-16 -1.54286593E-01 -1.98872590E-01 -1.20521673E-02 -4.58006505E-01
 -8.29349487E-01 -8.21293014E-17 -3.27190288E-02  1.42408201E-02  3.86320832E-15
  1.54286593E-01 -1.98872590E-01  5.18578953E-14  1.58078533E-13 -8.63508952E-13
  4.25606421E-12  8.53058702E-11 -1.88876000E-17  6.98020726E-02  7.80016451E-13
  6.48955891E-16  2.12718485E-01 -5.67138170E-12  9.82859697E-16  1.47849482E+00
 -1.53130614E-11  2.59386119E-14  3.11824180E-16 -2.01074263E-03 -1.85185158E-14
 -6.62508045E-17 -6.05328441E-13 -5.65941760E-16 -8.60138664E-02 -2.73765986E-12
 -2.83177181E-16  1.08958677E-02  1.39078907E+00  3.62917190E+00 -4.56889702E-16
 -1.63695387E-03 -7.96923978E-03 -9.24632777E-17  3.13143002E-01  2.94181441E-01
 -1.08958677E-02 -1.39078907E+00 -3.62917190E+00  6.66687921E-16 -1.63695387E-03
  7.96923978E-03 -1.34920954E-15  3.13143002E-01 -2.94181441E-01 -1.67452283E-03
 -2.82587676E-03 -2.14787629E-02  2.88299806E-01  8.75865059E+00  8.51688706E-16
 -6.50441958E-13  1.59174473E-01 -1.36452080E-16 -1.27737463E-11 -3.41379759E-01
 -6.10384462E-15 -2.87325630E-11 -2.51975216E+00 -8.82854955E-03  7.38563524E-18
  3.62793727E-13  4.62983901E-03  3.26898885E-16  9.64064717E-02  6.73512099E-16
  3.65940050E-12 -1.89874378E-01 -1.63596511E-15 -7.02209835E-02 -4.28871707E+00
 -4.40291499E-01  4.23916918E-16 -6.26836597E-02 -3.31826665E-02 -2.78259320E-15
 -7.99635866E-01 -5.49862322E-01 -7.02209835E-02 -4.28871707E+00 -4.40291499E-01
 -8.01531697E-16  6.26836597E-02 -3.31826665E-02  7.35405321E-15  7.99635866E-01
 -5.49862322E-01 -1.08615340E-16 -2.83706846E-16  6.23822550E-16  1.59606499E-15
  8.08906128E-15 -1.75805544E-01  9.45737966E-16  2.11116700E-16 -2.32264493E-01
 -1.89786294E-15  1.61102450E-16  1.87475620E+00 -2.42275428E-14 -6.69455580E-15
  4.55160479E-17  2.32488528E-02 -9.72871617E-17  5.29109092E-17 -2.12453246E-15
  3.75857558E-16 -2.04279491E-01  1.14032802E-15 -6.07538232E-17 -1.51049652E-14
 -9.30859605E-16 -3.32429909E-14 -2.12718974E-14  7.69267099E-03 -6.50673696E-16
  1.48827837E-16 -5.00672367E-01 -4.51101317E-15 -4.76343237E-15  2.26995255E-17
  1.78418023E-14  2.35235173E-14  7.69267099E-03 -3.07197857E-16  1.98785040E-16
 -5.00672367E-01 -7.32796956E-15  4.00410572E-15 -7.42465517E-13 -1.94122220E-12
  4.16214042E-12  9.76808107E-12 -1.13963438E-10 -1.49558057E-15 -1.85933128E-01
 -3.84561653E-12 -1.08277537E-15  4.37465176E-01 -1.02270256E-12  1.45092496E-14
  4.44584058E+00 -2.42054297E-11 -1.40442976E-13  3.79535026E-16  6.32372350E-03
  6.37933948E-14 -3.81775606E-16  5.70617506E-12 -7.66299458E-16 -2.58453845E-01
  1.08354676E-12  3.15128443E-15  9.09313879E-02  4.75608950E+00  4.07553418E+00
  1.44224691E-15  7.17733424E-02  3.57943838E-02 -4.18672350E-16  1.03163664E+00
  9.18705851E-01 -9.09313879E-02 -4.75608950E+00 -4.07553418E+00 -8.97505869E-16
  7.17733424E-02 -3.57943838E-02 -9.67581066E-15  1.03163664E+00 -9.18705851E-01
  2.57851666E-02  6.76665202E-02 -1.49964988E-01 -3.14355689E-01  3.43656254E+00
 -5.87453757E-16 -6.06881938E-12  1.40149221E-01 -1.04289882E-15  3.83895907E-12
  4.49020181E-02  6.88282082E-15  1.09877146E-10  7.74458907E-01  2.22129907E-03
 -2.01748725E-17  4.14535780E-13 -5.15435931E-03  1.07405056E-16 -1.55819570E-01
 -2.28267865E-15 -5.27135094E-12 -2.41117054E-02 -1.44986328E-15  8.40336653E-02
 -2.28351367E-01 -8.90679588E-01 -6.17392718E-16  2.76946460E-02 -4.03052783E-03
 -7.70823614E-15 -8.13172594E-01 -8.62286538E-01  8.40336653E-02 -2.28351367E-01
 -8.90679588E-01  5.21289255E-16 -2.76946460E-02 -4.03052783E-03  4.36237591E-15
  8.13172594E-01 -8.62286538E-01  4.74572727E-14  1.17483123E-13 -7.07129538E-14
 -2.33009435E-12 -2.71129516E-11 -1.68847942E-16  1.85597144E-01  9.29297420E-13
 -1.77151873E-15  3.33072022E-02  3.52798766E-12 -7.08350146E-15  1.08253754E+00
  2.54987995E-12 -7.51139516E-14  6.50221900E-18  1.41384757E-02  7.74391363E-15
 -6.54556334E-17  3.28002134E-13 -6.82001289E-16 -7.92502390E-02  7.94980857E-13
  4.70160680E-16  8.20887145E-02  5.84769936E-02 -7.12233761E-01 -5.59514759E-16
  2.82221370E-02 -5.51906761E-03  1.32352336E-14 -1.04842615E+00 -7.21192855E-01
 -8.20887145E-02 -5.84769936E-02  7.12233761E-01 -3.04387715E-16  2.82221370E-02
  5.51906762E-03 -1.45295646E-15 -1.04842615E+00  7.21192855E-01  3.81205984E-03
  9.70543728E-03 -1.83848020E-02 -7.92712316E-02  3.25472009E+00  7.81098314E-16
 -4.51485298E-13  3.13616141E-02  5.18103231E-16 -7.76570963E-12  4.82997748E-02
  3.71911229E-16 -6.33559403E-12  9.95568212E-01  2.80695568E-02 -1.64170371E-17
  2.80172736E-13  2.16412056E-02  1.38515750E-15 -1.25995768E-01 -9.57623443E-16
  1.07186418E-12 -1.10041352E-01 -3.73057572E-15 -4.71709254E-02 -1.36054342E+00
 -1.92823244E-01  1.43188153E-15 -1.35447603E-02  2.73087611E-02 -5.41158689E-14
  3.80097823E-01 -1.19961843E+00 -4.71709254E-02 -1.36054342E+00 -1.92823244E-01
 -8.12928654E-16  1.35447603E-02  2.73087611E-02  5.06462321E-14 -3.80097823E-01
 -1.19961843E+00  2.82077820E-16  6.81522821E-16 -1.96466437E-16 -1.53606752E-14
 -3.89804739E-14  3.03485925E-14 -1.93511601E-16  4.92930174E-15  1.00395484E-13
  3.17533104E-15  1.91906600E-14  5.99788861E-13 -1.30910970E-14  5.93706394E-14
  7.98497988E-16  6.23188595E-15 -1.31001901E-16  9.79617838E-16 -3.00156907E-02
 -2.43701592E-15  6.65318743E-14  1.26352785E-15  9.46588678E-16  8.23532170E-02
  5.66021087E-16  4.34037038E-14 -1.23517719E-14 -5.18661878E-02  5.13991165E-16
  2.79730420E-15  1.34986063E+00  3.64638610E-14 -2.94673586E-14 -1.08784698E-16
  3.63946361E-14 -3.76224843E-15  5.18661878E-02 -8.24214054E-16  2.60990660E-15
 -1.34986063E+00 -1.98768616E-14 -4.38123570E-14  5.97930398E-17  1.13221130E-16
  5.97603552E-16 -8.79590330E-15 -7.54236375E-14  1.10046563E-01  2.06798179E-15
  9.59110072E-16  4.36626020E-01  1.04752752E-14  8.02713378E-15  1.75424426E+00
 -6.11098477E-15  9.24530121E-15  1.06686847E-17  1.09637689E-02 -9.62993680E-17
  1.07785011E-16 -3.08895115E-16 -1.93290754E-15  1.12579908E-01 -3.58614164E-15
  5.69545999E-16  1.33850438E-13  2.43371862E-15  1.03904426E-13  4.77164328E-15
  6.70619028E-02  7.99598156E-16  1.89347897E-15 -1.36710717E+00  4.03185709E-14
 -2.57421889E-15 -6.38261477E-16 -2.08791401E-14 -4.96266345E-15  6.70619028E-02
 -1.54031052E-15 -2.60245694E-16 -1.36710717E+00  2.26472086E-14  1.44133502E-14
  1.99607315E-02  4.58970403E-02 -3.53730858E-02 -7.10159102E-01  7.77944815E+00
 -5.06679966E-16 -1.12807114E-12 -1.02340401E-01  4.12216729E-17 -2.36359041E-11
 -6.18471940E-01  7.81817546E-16 -6.71050549E-13 -1.61197928E+00  1.08439937E-02
  2.48537966E-17  4.32402622E-13 -9.27131376E-03  4.43606162E-16 -2.35172707E-01
  6.51170486E-16  5.90021307E-12  1.99488231E-01 -5.08896114E-15 -4.21129258E-02
 -3.55757445E+00 -3.05315638E-01 -1.49605998E-15 -4.55567481E-02 -4.67715472E-02
  3.50672182E-15 -3.39149969E-01  1.60131567E-02 -4.21129258E-02 -3.55757445E+00
 -3.05315638E-01  1.66651001E-15  4.55567481E-02 -4.67715472E-02 -3.77294305E-15
  3.39149969E-01  1.60131567E-02  3.09744344E-13  7.24532280E-13 -5.92655925E-13
 -1.22161619E-11  4.11842021E-11  3.24937009E-16 -1.57569283E-02 -5.17486135E-13
 -4.39666481E-15  1.80717555E-01 -3.29766550E-12 -7.87476529E-15 -2.78003606E+00
 -1.38047737E-11  1.27333132E-13  1.47912474E-16  1.48644055E-02 -1.86115145E-13
 -4.37778126E-17 -3.49453008E-12 -5.69253320E-15 -1.57381952E-01  5.28656904E-12
  2.31225733E-15  5.78683005E-02  3.25335074E+00 -9.40326746E-02  1.59657494E-15
 -5.15548845E-02  6.62600983E-02  8.55598990E-15  3.50502176E+00 -1.38780853E+00
 -5.78683005E-02 -3.25335074E+00  9.40326746E-02 -2.40216578E-15 -5.15548845E-02
 -6.62600983E-02  5.81651607E-15  3.50502176E+00  1.38780853E+00 -1.65546004E-02
 -3.57236865E-02 -4.32539010E-02  1.30750515E+00  1.80533262E+01  3.06358771E-15
 -1.14038275E-11 -2.92803597E-01 -2.74208033E-15 -9.28453718E-11 -1.29926517E+00
  1.01280596E-14 -1.93808989E-10 -1.89525854E+00  9.75289824E-03 -1.42951922E-16
  2.19835151E-12  2.68286965E-03  1.11156215E-15  1.58478649E-01  1.84550697E-15
  8.92540749E-12 -2.78811433E-01 -2.87630256E-14 -1.38797818E-01 -9.01332404E+00
 -5.90780123E-01 -3.11453138E-15 -4.09296586E-02 -3.41300954E-03 -1.72802763E-14
 -2.25544178E+00 -1.80685316E+00 -1.38797818E-01 -9.01332404E+00 -5.90780123E-01
  3.44370605E-15  4.09296586E-02 -3.41300953E-03  5.74942900E-15  2.25544178E+00
 -1.80685316E+00 -5.54074684E-13 -1.18327847E-12 -1.64920395E-12  4.47468833E-11
  6.99607385E-10  6.92255453E-16  3.50877152E-01 -1.34029545E-11  4.70028245E-15
  1.81910659E+00 -4.95626023E-11  1.23790074E-14  3.78997181E+00 -7.86303057E-11
  3.63440319E-13  9.68583218E-16 -2.48374596E-02  7.13847392E-14 -8.50682810E-16
  1.23347345E-11 -1.47775995E-14  4.08269877E-02  2.55136965E-12  2.03766075E-14
  1.87736876E-01  1.06173333E+01  3.11926263E+00  8.62838847E-16  2.80132845E-02
  2.61242646E-02  5.80565566E-15  3.28696430E+00  2.28425829E+00 -1.87736876E-01
 -1.06173333E+01 -3.11926263E+00 -4.25456286E-15  2.80132845E-02 -2.61242646E-02
 -2.32476978E-14  3.28696430E+00 -2.28425829E+00  2.57020783E-02  6.52647518E-02
 -1.23736024E-01 -8.15705989E-01  3.81594474E+00 -3.04870887E-16  2.43121422E-12
  8.09594514E-03 -1.16505730E-14  2.23463695E-12 -4.39492640E-01 -2.70675472E-14
 -9.93622422E-13 -2.18139855E+00 -1.73670256E-02 -4.77918396E-16  2.66542994E-13
  9.74895880E-03  1.28561033E-16  6.56836366E-01  2.03134774E-14  4.73331286E-12
 -1.14366442E+00 -1.11240902E-14  8.52141064E-02 -2.67359504E+00  3.44424757E-01
 -2.35570710E-16 -1.10329610E-01 -3.96513387E-03  1.48516328E-14  6.29878984E-01
  8.98098163E-01  8.52141064E-02 -2.67359504E+00  3.44424757E-01  4.09007254E-15
  1.10329610E-01 -3.96513387E-03  2.85610344E-14 -6.29878984E-01  8.98098163E-01
  9.52318762E-17  1.77418409E-16  1.16469077E-15 -2.16416672E-14  7.11250283E-14
  2.04963910E-01 -9.28953129E-15 -6.45038103E-16  6.88616012E-01  2.23929518E-14
  1.25822629E-16  2.60021707E+00  1.13928833E-13 -2.28613079E-14  1.49556996E-16
  3.45324487E-02 -1.69327379E-15  1.02310388E-15 -9.13988262E-15 -9.13265549E-15
 -1.70724652E+00 -5.07421884E-14 -2.88420695E-14  4.17355234E-13 -9.60678783E-15
  9.06440462E-14  4.44781279E-14 -1.90148242E-01  9.62625559E-15  6.69599783E-15
 -1.87209652E+00  2.34360463E-15 -7.37129489E-15  4.46366874E-15 -1.77873010E-13
 -3.50712489E-14 -1.90148242E-01 -1.39732895E-15 -7.71017720E-15 -1.87209652E+00
 -3.05380120E-14  1.29661540E-14  4.77198344E-14  1.44409231E-13 -4.65404827E-13
 -3.30910383E-12  7.68774224E-11 -8.14327634E-15 -1.35833634E-01 -3.78665010E-12
 -1.76555671E-14  8.60533661E-01 -6.27575181E-12 -8.93671645E-14  3.89163241E+00
 -2.60830319E-11 -1.00322258E-13 -9.90970360E-16 -7.20784293E-02  2.89569425E-13
 -1.89271276E-15  1.36930361E-11  5.33577258E-14 -1.45781972E+00  1.68967954E-12
  1.13545924E-13 -3.20229514E-01  7.05761838E+00  1.70613314E+00  1.53461004E-14
  1.62651777E-01  2.22983475E-01  1.73704952E-13  8.45335896E-01  2.12944622E-02
  3.20229514E-01 -7.05761838E+00 -1.70613314E+00 -5.48406901E-15  1.62651777E-01
 -2.22983475E-01 -4.86144402E-14  8.45335896E-01 -2.12944622E-02 -6.71288344E-16
 -2.11237497E-15  1.35214166E-14 -9.33277288E-14 -2.42532452E-13 -8.17674497E-14
  2.60033109E-16 -2.02732018E-14 -2.86520781E-13 -4.43818467E-14  3.45289719E-14
 -5.61968653E-13 -2.54397046E-13 -5.51728122E-14 -4.34565129E-16  4.74913394E-17
  3.22506169E-15  5.93350338E-15 -2.89494914E-02  6.27569066E-14  3.60851715E-13
  7.97295030E-14  1.18181366E-14  2.30364426E+00 -1.25458428E-16 -2.92063387E-13
 -1.42526924E-13  2.36350048E-01  2.36881187E-14  8.52665453E-15  2.21218143E+00
 -7.96694122E-14  5.75790955E-14 -3.66516021E-14  6.30975962E-13  1.28875447E-13
 -2.36350048E-01 -3.55718319E-14  2.44765022E-14 -2.21218143E+00 -6.57753335E-14
  9.80806668E-14  1.45687821E-02  4.35177986E-02 -2.51503705E-01  1.72050296E+00
  8.52978877E+00  7.17146080E-15  2.46490530E-12  1.67365696E-01 -1.23910271E-14
 -4.89846437E-12 -8.34230440E-01  9.42445404E-15  2.15285514E-11 -1.47091621E-01
  5.08407126E-03  2.78003376E-16  4.85456526E-13 -1.21777386E-01 -4.35601688E-16
 -4.86277986E-01 -2.02389649E-15 -1.04432096E-11  1.66160211E-01  1.25056063E-13
  5.66514971E-01 -5.14008735E+00 -5.41589051E-02  1.17959786E-14 -6.73732163E-01
 -1.27638527E-01  1.23537545E-13 -6.79247131E-01 -1.40914457E+00  5.66514971E-01
 -5.14008735E+00 -5.41589051E-02 -7.86037767E-15  6.73732163E-01 -1.27638527E-01
 -1.30725295E-13  6.79247131E-01 -1.40914457E+00 -1.31062902E-02 -3.65917544E-02
  1.58950432E-01 -6.63169545E-01  5.42383323E+00 -4.34995393E-15  5.13180214E-12
 -1.71711298E-01  4.36470744E-15 -1.77977645E-11  7.75759973E-01 -3.07576928E-14
  1.83603699E-11  1.57955530E+00 -1.27295683E-02  1.56545600E-16  1.85754695E-12
  5.70153686E-02  1.59577534E-16 -2.22150728E+00  1.26932968E-14 -2.03083806E-11
 -1.65127659E+00  2.25657829E-14 -1.86153502E-01 -2.35092437E+00 -2.28432106E-01
  5.53193415E-17  4.32021831E-01  5.68951250E-02  4.25428819E-14  8.56365675E-01
 -2.23476851E+00 -1.86153502E-01 -2.35092437E+00 -2.28432106E-01 -8.24004176E-15
 -4.32021831E-01  5.68951251E-02 -1.75993533E-15 -8.56365675E-01 -2.23476851E+00
 -4.28732905E-14 -1.04028635E-13  4.38787911E-13 -2.56517925E-12  1.00166795E-10
  2.21014663E-14 -3.28146792E-01 -4.39041557E-12 -5.28881708E-14  1.42308574E+00
  6.57769358E-12 -1.99019370E-14 -6.29991893E-01  1.32686106E-11 -3.50322453E-13
  1.45896893E-15 -1.73517616E-01  6.05018384E-14  7.86127796E-16 -2.14950921E-11
  1.83958633E-14  1.70611220E+00 -1.41383958E-11 -1.90857598E-14 -5.47391361E-01
  4.55889069E+00 -1.30795200E-01 -9.94245116E-16  4.94772760E-01  6.23248390E-01
  1.20145350E-14  2.04449107E+00  1.28275796E+00  5.47391361E-01 -4.55889069E+00
  1.30795200E-01  1.46389003E-14  4.94772760E-01 -6.23248390E-01  3.94753825E-14
  2.04449107E+00 -1.28275796E+00  3.03005941E-16  8.83784062E-16 -3.91739865E-15
  1.48072306E-14  1.89423069E-13  3.53415037E-13 -6.96690655E-15  5.51153975E-15
 -6.89704804E-13  4.29439477E-14 -2.84117970E-15 -1.88269106E-13  4.06348407E-14
 -4.43494250E-15  5.56286547E-16  2.07504870E-14 -4.06806067E-16 -1.11454764E-15
 -7.13693244E-02 -2.25139660E-14  2.07140214E-13 -6.68963101E-15 -1.40099131E-14
  7.05998107E-01  1.14725112E-14 -1.84639064E-14  6.45155795E-15  1.07318336E+00
  1.30154813E-14 -1.00817926E-14 -1.40608938E-01 -9.30216918E-15 -5.53353106E-15
 -9.38193438E-16 -1.84861495E-13 -1.39754412E-14 -1.07318336E+00  5.64700739E-15
 -1.77761697E-14  1.40608938E-01  7.71963451E-15 -4.94401530E-14  5.69947552E-16
  1.31848654E-15  2.73627026E-15 -8.67657735E-14 -1.10670363E-12 -9.41746180E-01
 -9.89847425E-15 -4.22438041E-14  1.89221333E+00  5.84266215E-14  3.56864946E-14
  9.71884392E-01 -1.66004946E-14  1.30174193E-14 -3.93096708E-15 -2.93559956E-02
 -2.49840459E-15  1.15667256E-15 -3.22374186E-14  1.82609231E-13 -6.90499984E-01
  4.11757799E-14  1.39186945E-13  1.82478340E-13  1.03609685E-14  7.34282466E-13
  1.34910036E-14  1.60136675E-02 -2.94705886E-14  1.18740305E-13 -1.17602924E+00