Title                                                                   
Freq      RB3LYP                                                      6-31G(d)            
Number of atoms                            I               10
Info1-9                                    I   N=           9
          18          18        1002           0           0         100
           6          18        -502
Full Title                                 C   N=           1
Title       
Route                                      C   N=           3
#p B3LYP/6-31G(d) Opt freq          
Charge                                     I                0
Multiplicity                               I                1
Number of electrons                        I               40
Number of alpha electrons                  I               20
Number of beta electrons                   I               20
Number of basis functions                  I               85
Number of independent functions            I               85
Number of point charges in /Mol/           I                0
Number of translation vectors              I                0
Atomic numbers                             I   N=          10
           7           6           6           1           1           8
           8           1           1           1
Nuclear charges                            R   N=          10
  7.00000000E+00  6.00000000E+00  6.00000000E+00  1.00000000E+00  1.00000000E+00
  8.00000000E+00  8.00000000E+00  1.00000000E+00  1.00000000E+00  1.00000000E+00
Current cartesian coordinates              R   N=          30
 -3.64418518E+00  1.57566877E-01  9.53263287E-05 -1.40606228E+00 -1.43431541E+00
 -3.57495088E-04  1.20006334E+00 -1.86277165E-01  2.61114087E-05 -1.44918643E+00
 -2.68883920E+00 -1.64940609E+00 -1.44929253E+00 -2.68996654E+00  1.64780313E+00
  3.18217557E+00 -1.32739248E+00  2.43845347E-04  1.07513262E+00  2.37684693E+00
 -1.03614264E-04  2.82382792E+00  2.96365824E+00 -5.36800421E-05 -3.61881577E+00
  1.32113791E+00 -1.53177444E+00 -3.61970875E+00  1.31896135E+00  1.53363024E+00
Number of symbols in /Mol/                 I                0
Force Field                                I                0
Atom Types                                 C   N=          10
                                                            
                                                            
Int Atom Types                             I   N=          10
           0           0           0           0           0           0
           0           0           0           0
MM charges                                 R   N=          10
  0.00000000E+00  0.00000000E+00  0.00000000E+00  0.00000000E+00  0.00000000E+00
  0.00000000E+00  0.00000000E+00  0.00000000E+00  0.00000000E+00  0.00000000E+00
Integer atomic weights                     I   N=          10
          14          12          12           1           1          16
          16           1           1           1
Real atomic weights                        R   N=          10
  1.40030740E+01  1.20000000E+01  1.20000000E+01  1.00782504E+00  1.00782504E+00
  1.59949146E+01  1.59949146E+01  1.00782504E+00  1.00782504E+00  1.00782504E+00
Atom fragment info                         I   N=          10
           0           0           0           0           0           0
           0           0           0           0
Atom residue num                           I   N=          10
           0           0           0           0           0           0
           0           0           0           0
Nuclear spins                              I   N=          10
           2           0           0           1           1           0
           0           1           1           1
Nuclear ZEff                               R   N=          10
 -4.55000000E+00 -3.60000000E+00 -3.60000000E+00 -1.00000000E+00 -1.00000000E+00
 -5.60000000E+00 -5.60000000E+00 -1.00000000E+00 -1.00000000E+00 -1.00000000E+00
Nuclear ZNuc                               R   N=          10
  7.00000000E+00  6.00000000E+00  6.00000000E+00  1.00000000E+00  1.00000000E+00
  8.00000000E+00  8.00000000E+00  1.00000000E+00  1.00000000E+00  1.00000000E+00
Nuclear QMom                               R   N=          10
  2.04400000E+00  0.00000000E+00  0.00000000E+00  0.00000000E+00  0.00000000E+00
  0.00000000E+00  0.00000000E+00  0.00000000E+00  0.00000000E+00  0.00000000E+00
Nuclear GFac                               R   N=          10
  4.03761000E-01  0.00000000E+00  0.00000000E+00  2.79284600E+00  2.79284600E+00
  0.00000000E+00  0.00000000E+00  2.79284600E+00  2.79284600E+00  2.79284600E+00
MicOpt                                     I   N=          10
          -1          -1          -1          -1          -1          -1
          -1          -1          -1          -1
Number of residues                         I                0
Number of secondary structures             I                0
Redundant internal dimensions              I   N=           4
          36           9          13          14
Redundant internal coordinate indices      I   N=         144
           1           2           0           0           1           9
           0           0           1          10           0           0
           2           3           0           0           2           4
           0           0           2           5           0           0
           3           6           0           0           3           7
           0           0           7           8           0           0
           2           1           9           0           2           1
          10           0           9           1          10           0
           1           2           3           0           1           2
           4           0           1           2           5           0
           3           2           4           0           3           2
           5           0           4           2           5           0
           2           3           6           0           2           3
           7           0           6           3           7           0
           3           7           8           0           9           1
           2           3           9           1           2           4
           9           1           2           5          10           1
           2           3          10           1           2           4
          10           1           2           5           1           2
           3           6           1           2           3           7
           4           2           3           6           4           2
           3           7           5           2           3           6
           5           2           3           7           2           3
           7           8           6           3           7           8
Redundant internal coordinates             R   N=          36
  2.74650388E+00  1.92384151E+00  1.92384136E+00  2.88954847E+00  2.07245045E+00
  2.07242902E+00  2.28711895E+00  2.56616695E+00  1.84452779E+00  1.91736904E+00
  1.91735334E+00  1.84359314E+00  2.07673645E+00  1.91136989E+00  1.91138550E+00
  1.85492936E+00  1.85500521E+00  1.83963094E+00  2.17261287E+00  1.96870783E+00
  2.14186460E+00  1.84585633E+00  1.00990428E+00 -1.12699325E+00 -3.13626510E+00
 -1.01091646E+00  3.13537131E+00  1.12609947E+00  3.14130630E+00 -3.72676681E-04
 -9.77157850E-01  2.16434848E+00  9.76498334E-01 -2.16518065E+00 -3.14146979E+00
  3.82809207E-05
ZRed-IntVec                                I   N=          36
           0           0           0           0           0           0
           0           0           0           0           0           0
           0           0           0           0           0           0
           0           0           0           0           0           0
           0           0           0           0           0           0
           0           0           0           0           0           0
ZRed-FPVec                                 R   N=          36
  0.00000000E+00  0.00000000E+00  0.00000000E+00  0.00000000E+00  0.00000000E+00
  0.00000000E+00  0.00000000E+00  0.00000000E+00  0.00000000E+00  0.00000000E+00
  0.00000000E+00  0.00000000E+00  0.00000000E+00  0.00000000E+00  0.00000000E+00
  0.00000000E+00  0.00000000E+00  0.00000000E+00  0.00000000E+00  0.00000000E+00
  0.00000000E+00  0.00000000E+00  0.00000000E+00  0.00000000E+00  0.00000000E+00
  0.00000000E+00  0.00000000E+00  0.00000000E+00  0.00000000E+00  0.00000000E+00
  0.00000000E+00  0.00000000E+00  0.00000000E+00  0.00000000E+00  0.00000000E+00
  0.00000000E+00
ZRed-Constraint1                           R   N=          36
  2.74650388E+00  1.92384151E+00  1.92384136E+00  2.88954847E+00  2.07245045E+00
  2.07242902E+00  2.28711895E+00  2.56616695E+00  1.84452779E+00  1.91736904E+00
  1.91735334E+00  1.84359314E+00  2.07673645E+00  1.91136989E+00  1.91138550E+00
  1.85492936E+00  1.85500521E+00  1.83963094E+00  2.17261287E+00  1.96870783E+00
  2.14186460E+00  1.84585633E+00  1.00990428E+00 -1.12699325E+00 -3.13626510E+00
 -1.01091646E+00  3.13537131E+00  1.12609947E+00  3.14130630E+00 -3.72676681E-04
 -9.77157850E-01  2.16434848E+00  9.76498334E-01 -2.16518065E+00 -3.14146979E+00
  3.82809236E-05
ZRed-Constraint2                           R   N=          36
  2.75924071E+00  1.97695560E+00  1.97629781E+00  2.84074068E+00  2.10167650E+00
  2.09891044E+00  2.30903726E+00  2.55112073E+00  1.82861131E+00  1.91281610E+00
  1.91677957E+00  1.90322787E+00  1.93781533E+00  1.90146295E+00  1.90885780E+00
  1.92168912E+00  1.90636942E+00  1.88689406E+00  2.09534914E+00  2.09239073E+00
  2.09543701E+00  2.11929911E+00  1.02043184E+00 -1.09876259E+00  3.12539707E+00
 -1.06999879E+00  3.09399209E+00  1.03496644E+00 -2.09169907E+00  1.05430155E+00
  1.55957223E-02 -3.12158897E+00  2.08505047E+00 -1.05213422E+00 -3.14085009E+00
  5.15075485E-03
SymInf integers                            I   N=          26
           1           1           1           1           1           0
           0           0           0           0           0           0
           0           0           0           0           0           0
           0           0           0           0           0           0
           0           0
RotTr to input orientation                 R   N=          12
  9.07386441E-01 -3.70954992E-01 -1.97591094E-01  3.41327154E-01  9.24704982E-01
 -1.68571856E-01  2.45246040E-01  8.55166111E-02  9.65681774E-01 -6.83613112E+00
 -5.44905576E+00  7.78765565E-01
Number of contracted shells                I               30
Number of primitive shells                 I               75
Pure/Cartesian d shells                    I                1
Pure/Cartesian f shells                    I                0
Highest angular momentum                   I                2
Largest degree of contraction              I                6
Shell types                                I   N=          30
           0          -1          -1           2           0          -1
          -1           2           0          -1          -1           2
           0           0           0           0           0          -1
          -1           2           0          -1          -1           2
           0           0           0           0           0           0
Number of primitives per shell             I   N=          30
           6           3           1           1           6           3
           1           1           6           3           1           1
           3           1           3           1           6           3
           1           1           6           3           1           1
           3           1           3           1           3           1
Shell to atom map                          I   N=          30
           1           1           1           1           2           2
           2           2           3           3           3           3
           4           4           5           5           6           6
           6           6           7           7           7           7
           8           8           9           9          10          10
Primitive exponents                        R   N=          75
  4.17351146E+03  6.27457911E+02  1.42902093E+02  4.02343293E+01  1.28202129E+01
  4.39043701E+00  1.16263619E+01  2.71627981E+00  7.72218397E-01  2.12031498E-01
  8.00000000E-01  3.04752488E+03  4.57369518E+02  1.03948685E+02  2.92101553E+01
  9.28666296E+00  3.16392696E+00  7.86827235E+00  1.88128854E+00  5.44249258E-01
  1.68714478E-01  8.00000000E-01  3.04752488E+03  4.57369518E+02  1.03948685E+02
  2.92101553E+01  9.28666296E+00  3.16392696E+00  7.86827235E+00  1.88128854E+00
  5.44249258E-01  1.68714478E-01  8.00000000E-01  1.87311370E+01  2.82539436E+00
  6.40121692E-01  1.61277759E-01  1.87311370E+01  2.82539436E+00  6.40121692E-01
  1.61277759E-01  5.48467166E+03  8.25234946E+02  1.88046958E+02  5.29645000E+01
  1.68975704E+01  5.79963534E+00  1.55396162E+01  3.59993359E+00  1.01376175E+00
  2.70005823E-01  8.00000000E-01  5.48467166E+03  8.25234946E+02  1.88046958E+02
  5.29645000E+01  1.68975704E+01  5.79963534E+00  1.55396162E+01  3.59993359E+00
  1.01376175E+00  2.70005823E-01  8.00000000E-01  1.87311370E+01  2.82539436E+00
  6.40121692E-01  1.61277759E-01  1.87311370E+01  2.82539436E+00  6.40121692E-01
  1.61277759E-01  1.87311370E+01  2.82539436E+00  6.40121692E-01  1.61277759E-01
Contraction coefficients                   R   N=          75
  1.83477216E-03  1.39946270E-02  6.85865518E-02  2.32240873E-01  4.69069948E-01
  3.60455199E-01 -1.14961182E-01 -1.69117479E-01  1.14585195E+00  1.00000000E+00
  1.00000000E+00  1.83473713E-03  1.40373228E-02  6.88426223E-02  2.32184443E-01
  4.67941348E-01  3.62311985E-01 -1.19332420E-01 -1.60854152E-01  1.14345644E+00
  1.00000000E+00  1.00000000E+00  1.83473713E-03  1.40373228E-02  6.88426223E-02
  2.32184443E-01  4.67941348E-01  3.62311985E-01 -1.19332420E-01 -1.60854152E-01
  1.14345644E+00  1.00000000E+00  1.00000000E+00  3.34946043E-02  2.34726953E-01
  8.13757326E-01  1.00000000E+00  3.34946043E-02  2.34726953E-01  8.13757326E-01
  1.00000000E+00  1.83107443E-03  1.39501722E-02  6.84450781E-02  2.32714336E-01
  4.70192898E-01  3.58520853E-01 -1.10777550E-01 -1.48026263E-01  1.13076702E+00
  1.00000000E+00  1.00000000E+00  1.83107443E-03  1.39501722E-02  6.84450781E-02
  2.32714336E-01  4.70192898E-01  3.58520853E-01 -1.10777550E-01 -1.48026263E-01
  1.13076702E+00  1.00000000E+00  1.00000000E+00  3.34946043E-02  2.34726953E-01
  8.13757326E-01  1.00000000E+00  3.34946043E-02  2.34726953E-01  8.13757326E-01
  1.00000000E+00  3.34946043E-02  2.34726953E-01  8.13757326E-01  1.00000000E+00
P(S=P) Contraction coefficients            R   N=          75
  0.00000000E+00  0.00000000E+00  0.00000000E+00  0.00000000E+00  0.00000000E+00
  0.00000000E+00  6.75797439E-02  3.23907296E-01  7.40895140E-01  1.00000000E+00
  0.00000000E+00  0.00000000E+00  0.00000000E+00  0.00000000E+00  0.00000000E+00
  0.00000000E+00  0.00000000E+00  6.89990666E-02  3.16423961E-01  7.44308291E-01
  1.00000000E+00  0.00000000E+00  0.00000000E+00  0.00000000E+00  0.00000000E+00
  0.00000000E+00  0.00000000E+00  0.00000000E+00  6.89990666E-02  3.16423961E-01
  7.44308291E-01  1.00000000E+00  0.00000000E+00  0.00000000E+00  0.00000000E+00
  0.00000000E+00  0.00000000E+00  0.00000000E+00  0.00000000E+00  0.00000000E+00
  0.00000000E+00  0.00000000E+00  0.00000000E+00  0.00000000E+00  0.00000000E+00
  0.00000000E+00  0.00000000E+00  7.08742682E-02  3.39752839E-01  7.27158577E-01
  1.00000000E+00  0.00000000E+00  0.00000000E+00  0.00000000E+00  0.00000000E+00
  0.00000000E+00  0.00000000E+00  0.00000000E+00  7.08742682E-02  3.39752839E-01
  7.27158577E-01  1.00000000E+00  0.00000000E+00  0.00000000E+00  0.00000000E+00
  0.00000000E+00  0.00000000E+00  0.00000000E+00  0.00000000E+00  0.00000000E+00
  0.00000000E+00  0.00000000E+00  0.00000000E+00  0.00000000E+00  0.00000000E+00
Coordinates of each shell                  R   N=          90
 -3.64418518E+00  1.57566877E-01  9.53263287E-05 -3.64418518E+00  1.57566877E-01
  9.53263287E-05 -3.64418518E+00  1.57566877E-01  9.53263287E-05 -3.64418518E+00
  1.57566877E-01  9.53263287E-05 -1.40606228E+00 -1.43431541E+00 -3.57495088E-04
 -1.40606228E+00 -1.43431541E+00 -3.57495088E-04 -1.40606228E+00 -1.43431541E+00
 -3.57495088E-04 -1.40606228E+00 -1.43431541E+00 -3.57495088E-04  1.20006334E+00
 -1.86277165E-01  2.61114087E-05  1.20006334E+00 -1.86277165E-01  2.61114087E-05
  1.20006334E+00 -1.86277165E-01  2.61114087E-05  1.20006334E+00 -1.86277165E-01
  2.61114087E-05 -1.44918643E+00 -2.68883920E+00 -1.64940609E+00 -1.44918643E+00
 -2.68883920E+00 -1.64940609E+00 -1.44929253E+00 -2.68996654E+00  1.64780313E+00
 -1.44929253E+00 -2.68996654E+00  1.64780313E+00  3.18217557E+00 -1.32739248E+00
  2.43845347E-04  3.18217557E+00 -1.32739248E+00  2.43845347E-04  3.18217557E+00
 -1.32739248E+00  2.43845347E-04  3.18217557E+00 -1.32739248E+00  2.43845347E-04
  1.07513262E+00  2.37684693E+00 -1.03614264E-04  1.07513262E+00  2.37684693E+00
 -1.03614264E-04  1.07513262E+00  2.37684693E+00 -1.03614264E-04  1.07513262E+00
  2.37684693E+00 -1.03614264E-04  2.82382792E+00  2.96365824E+00 -5.36800421E-05
  2.82382792E+00  2.96365824E+00 -5.36800421E-05 -3.61881577E+00  1.32113791E+00
 -1.53177444E+00 -3.61881577E+00  1.32113791E+00 -1.53177444E+00 -3.61970875E+00
  1.31896135E+00  1.53363024E+00 -3.61970875E+00  1.31896135E+00  1.53363024E+00
Num ILSW                                   I              100
ILSW                                       I   N=         100
           0           1           0           0           2           0
           0           0           0           0         402          -1
           5           0           0           0           2           0
           0           0           0           0           1           0
           1           0           0           0           0           0
           0           0      100000           0          -1           0
           0           0           0           0           0           0
           0           0           0           1           0           0
           0 -2000000000           1           0           0           0
           0           0           4          52           0           0
           0           0           5           0           0           0
           0           0           0          10           0           1
           0           0           0           0           0           0
           0           0           0           0           0           0
           0           0           0           0           0           0
           0           0           0           0           0           0
           0           0           0           0
Num RLSW                                   I               52
RLSW                                       R   N=          52
  8.00000000E-01  7.20000000E-01  1.00000000E+00  8.10000000E-01  2.00000000E-01
  0.00000000E+00  0.00000000E+00  1.00000000E+00  0.00000000E+00  0.00000000E+00
  0.00000000E+00  0.00000000E+00  1.00000000E+00  0.00000000E+00  0.00000000E+00
  0.00000000E+00  0.00000000E+00  1.00000000E+00  0.00000000E+00  0.00000000E+00
  0.00000000E+00  0.00000000E+00  1.00000000E+00  0.00000000E+00  0.00000000E+00
  0.00000000E+00  0.00000000E+00  1.00000000E+00  0.00000000E+00  0.00000000E+00
  0.00000000E+00  0.00000000E+00  1.00000000E+00  0.00000000E+00  0.00000000E+00
  0.00000000E+00  0.00000000E+00  0.00000000E+00  1.00000000E+00  1.00000000E+00
  0.00000000E+00  1.00000000E+00  0.00000000E+00  0.00000000E+00  0.00000000E+00
  0.00000000E+00  0.00000000E+00  0.00000000E+00  0.00000000E+00  0.00000000E+00
  0.00000000E+00  0.00000000E+00
MxBond                                     I                4
NBond                                      I   N=          10
           3           4           3           1           1           1
           2           1           1           1
IBond                                      I   N=          40
           2           9          10           0           1           3
           4           5           2           6           7           0
           2           0           0           0           2           0
           0           0           3           0           0           0
           3           8           0           0           7           0
           0           0           1           0           0           0
           1           0           0           0
RBond                                      R   N=          40
  1.00000000E+00  1.00000000E+00  1.00000000E+00  0.00000000E+00  1.00000000E+00
  1.00000000E+00  1.00000000E+00  1.00000000E+00  1.00000000E+00  2.00000000E+00
  1.50000000E+00  0.00000000E+00  1.00000000E+00  0.00000000E+00  0.00000000E+00
  0.00000000E+00  1.00000000E+00  0.00000000E+00  0.00000000E+00  0.00000000E+00
  2.00000000E+00  0.00000000E+00  0.00000000E+00  0.00000000E+00  1.50000000E+00
  1.00000000E+00  0.00000000E+00  0.00000000E+00  1.00000000E+00  0.00000000E+00
  0.00000000E+00  0.00000000E+00  1.00000000E+00  0.00000000E+00  0.00000000E+00
  0.00000000E+00  1.00000000E+00  0.00000000E+00  0.00000000E+00  0.00000000E+00
Virial Ratio                               R      2.008895007005231E+00
SCF Energy                                 R     -2.844208312469210E+02
Total Energy                               R     -2.844208312469210E+02
RMS Force                                  R      1.952981021080236E-05
RMS Density                                R      2.469426554329030E-09
NImag                                      I                0
Job Status                                 I                1
Nuclear derivative order                   I                2
External E-field                           R   N=          35
  0.00000000E+00  0.00000000E+00  0.00000000E+00  0.00000000E+00  0.00000000E+00
  0.00000000E+00  0.00000000E+00  0.00000000E+00  0.00000000E+00  0.00000000E+00
  0.00000000E+00  0.00000000E+00  0.00000000E+00  0.00000000E+00  0.00000000E+00
  0.00000000E+00  0.00000000E+00  0.00000000E+00  0.00000000E+00  0.00000000E+00
  0.00000000E+00  0.00000000E+00  0.00000000E+00  0.00000000E+00  0.00000000E+00
  0.00000000E+00  0.00000000E+00  0.00000000E+00  0.00000000E+00  0.00000000E+00
  0.00000000E+00  0.00000000E+00  0.00000000E+00  0.00000000E+00  0.00000000E+00
IOpCl                                      I                0
IROHF                                      I                0
Alpha Orbital Energies                     R   N=          85
 -1.92043554E+01 -1.91411206E+01 -1.43246360E+01 -1.03218702E+01 -1.02299192E+01
 -1.10961860E+00 -1.01825774E+00 -8.93578032E-01 -7.15223366E-01 -6.17415725E-01
 -5.12229385E-01 -4.96074531E-01 -4.84406309E-01 -4.44547441E-01 -4.20097492E-01
 -4.01089881E-01 -3.79758150E-01 -3.20647465E-01 -2.99488147E-01 -2.40137810E-01
  6.74116259E-03  6.06155232E-02  9.47865118E-02  1.31876197E-01  1.39251982E-01
  1.89276199E-01  2.13226666E-01  2.33066452E-01  3.01821974E-01  3.79306128E-01
  5.33130834E-01  5.59245753E-01  5.71391887E-01  5.94083880E-01  6.27524460E-01
  6.68291727E-01  7.17815616E-01  7.55627187E-01  7.83650210E-01  7.86397237E-01
  8.19320301E-01  8.55001303E-01  8.93188872E-01  9.12566786E-01  9.13087665E-01
  9.41896207E-01  9.49830369E-01  9.53955163E-01  1.03923281E+00  1.06459626E+00
  1.08487010E+00  1.30619570E+00  1.35269238E+00  1.41430904E+00  1.43503960E+00
  1.50294251E+00  1.56188600E+00  1.69150089E+00  1.69871026E+00  1.76984922E+00
  1.77236970E+00  1.81046041E+00  1.88426158E+00  1.88728345E+00  1.97222313E+00
  1.99379136E+00  2.06472226E+00  2.09861826E+00  2.18703863E+00  2.28619254E+00
  2.32447715E+00  2.36714346E+00  2.48168193E+00  2.50360015E+00  2.59663535E+00
  2.65144827E+00  2.71096261E+00  2.86011766E+00  2.97732827E+00  3.08711476E+00
  3.71344303E+00  3.89061522E+00  4.08540819E+00  4.14969971E+00  4.49723653E+00
Alpha MO coefficients                      R   N=        7225
  4.99306479E-05  1.94346643E-04  7.38654696E-05  1.26977232E-05  5.66798890E-08
 -1.33159234E-03 -6.70785592E-04  2.80255497E-04 -2.55316358E-07  8.45470485E-05
  9.42683166E-05  1.06946639E-04  4.49464030E-05  4.58874836E-08  1.74117423E-08
 -2.00437298E-05 -6.19486584E-05  2.02552243E-05  4.68241410E-05  4.05969384E-10
  1.54446695E-03 -6.01774881E-04  9.45900662E-04  2.73478385E-07 -3.49586259E-05
 -6.95278825E-06 -2.83961232E-05 -4.56528202E-05 -5.16584169E-08  3.94203798E-08
  2.30200128E-05  4.42878207E-04 -1.28860739E-05  3.23675194E-04 -5.58644539E-09
 -2.10879558E-03  1.33030835E-03 -2.40204598E-03  1.32978366E-07  2.84240491E-05
  9.20821530E-05  1.94142999E-05 -4.63924101E-05  3.60068798E-09  5.29730261E-09
 -3.77212028E-05  6.54013140E-06 -3.76838268E-05  6.35400965E-06 -3.15925995E-05
  2.41490754E-04 -2.59486094E-05 -4.99737202E-05  1.79060485E-10 -1.46964049E-03
  4.58550417E-04  8.91663461E-05  5.00353292E-08  7.36474218E-05  6.81226889E-05
  1.48280506E-04  4.53903916E-05 -1.18910585E-08  1.34998388E-08  9.92709212E-01
  2.58016525E-02  8.73836806E-04 -4.14168408E-04  5.61380119E-08  1.30968744E-02
 -3.22353678E-04 -9.80991089E-04  3.10782081E-08 -8.23243898E-03 -8.14601011E-03
 -8.16406848E-03  3.81291016E-05  9.95778259E-10 -2.32173877E-09  4.40799571E-04
 -1.04133301E-03  1.59421253E-04 -1.92616149E-04  1.59248223E-04 -1.91574160E-04
  2.28602147E-05  7.87397615E-05  6.05017777E-05  3.67556873E-06  1.76378361E-08
 -4.43114391E-06 -9.45230305E-05 -2.03378191E-04 -2.25711087E-07  9.32365822E-06
  7.59015575E-05  7.42217562E-05 -3.45108116E-05 -2.11744408E-08  1.46728097E-08
  2.72113899E-05  1.38822397E-04 -2.34285607E-05 -8.59584460E-06 -3.43075121E-08
 -1.18895792E-03  9.30327252E-05 -6.45984695E-04  2.83518842E-07  3.09915069E-05
  2.55835672E-06  6.16339260E-05  3.63816521E-06  1.14696527E-09 -1.98342717E-08
 -8.81235311E-06  4.23128922E-04 -5.66095118E-05  6.60292339E-05 -1.10286931E-08
 -3.10833490E-03 -3.68477452E-03  2.04588206E-03 -4.96049699E-07 -7.58029321E-04
 -2.44410023E-04 -5.31312071E-05  4.57911017E-04 -7.38200127E-08  5.26946609E-08
  3.74911599E-05  3.65716198E-05  3.74374353E-05  3.61913265E-05  9.92703727E-01
  2.55191227E-02 -1.01333734E-03  6.29012366E-04 -1.21911630E-07  1.51517415E-02
 -1.70957874E-03  1.00135506E-03 -1.52222250E-07 -7.80577047E-03 -8.10720334E-03
 -8.28310785E-03 -3.17785029E-04  5.65063692E-08 -3.36627490E-08  1.00255096E-04
  1.27769452E-04 -7.19521311E-05 -2.04577239E-05 -5.33846535E-09 -7.65282386E-04
  5.68476357E-04  2.54653162E-04  4.43082532E-08  5.52337339E-05  4.12027892E-05
  5.36314071E-05  3.81737460E-05  1.81910215E-09  1.46029257E-09 -5.26036368E-05
 -7.76555397E-05  4.87250369E-05  2.37804720E-05  4.87501188E-05  2.38451572E-05
  9.92706741E-01  3.46762947E-02  1.02370395E-03  6.90420444E-04  7.96640911E-07
  3.82565104E-03 -3.98936796E-04 -3.15782617E-04 -3.50271729E-07 -8.26435466E-03
 -8.17782030E-03 -8.17579962E-03  1.77237981E-05 -1.63813600E-08  6.21884953E-09
 -9.13044714E-06  1.04181091E-04 -2.49274085E-04  1.49111288E-04  1.92727208E-08
  1.94692255E-04  6.20882686E-04  1.07766531E-05  2.08590582E-07  6.25984084E-05
 -1.49875147E-05 -4.88796141E-05 -2.91041123E-05 -3.30371226E-09  3.13907080E-09
 -1.62840742E-06  4.58056284E-05  1.37715710E-05  9.10310927E-06 -4.65235322E-09
 -5.33619598E-04  5.82400718E-05  4.77879191E-04 -2.10294271E-08 -8.73855658E-05
 -8.16245579E-06 -4.97087956E-06  1.75760931E-05  2.36981008E-10  4.35736337E-09
 -2.12376708E-05 -5.13981558E-05 -2.12900730E-05 -5.14705956E-05 -1.38640997E-05
 -5.72691527E-05 -3.85823910E-06  9.60310620E-06 -1.78120519E-09  4.20819314E-04
 -1.62376303E-04  4.04057584E-06 -1.05415288E-08 -1.08705615E-05 -4.49743094E-05
 -3.98379533E-05 -1.92643471E-05  3.09531491E-09 -2.65729067E-09  4.00289905E-06
  4.02966094E-05  1.63947354E-05 -7.19682951E-06  2.14203321E-10 -2.25824558E-04
 -5.64283914E-05  8.00830778E-05 -9.71526079E-09 -1.18123848E-05  5.22482356E-06
  1.38597336E-05 -5.59845827E-06  2.98316468E-09 -3.49760958E-10  3.39294730E-05
 -2.28462782E-05  2.81774373E-04 -3.69169537E-04  2.81761112E-04 -3.69116768E-04
 -3.26492945E-05 -1.35704248E-04 -9.58170089E-05  1.45867142E-05 -1.58348649E-08
  6.24712566E-05  7.18390049E-06 -6.51364674E-05  1.18222118E-07 -3.00541953E-05
 -1.95998407E-05 -1.58212911E-04  1.78169889E-05  9.04878203E-09  6.03698409E-08
  9.87743456E-04 -3.27195733E-04 -1.57980376E-04 -1.64155850E-04 -5.26236015E-08
  5.31696310E-03  2.26112235E-03  1.71838168E-03  3.57176792E-07 -4.24035592E-04
 -2.21112948E-04 -2.07804387E-04 -9.33380677E-05 -3.53107050E-08 -8.34681265E-10
  9.92930318E-01  4.82624343E-02  7.34785185E-04  6.37854870E-04 -1.56043990E-08
 -7.21113470E-03  5.46056994E-03  7.73770918E-04  7.85972640E-07 -8.51619551E-03
 -8.48024125E-03 -9.57393426E-03 -4.85487857E-04  1.29294780E-07 -1.02080233E-07
 -1.85559719E-04  3.00423487E-04 -1.85478790E-04  3.00382794E-04 -9.65443149E-05
  6.35317749E-04  4.17353473E-05  6.23051370E-05  1.58953296E-08 -4.48595584E-03
  1.61607875E-03 -1.88002226E-03  1.11591026E-07  1.36537034E-04  1.33318458E-04
  5.22634194E-04  3.57317788E-04 -3.94907168E-08  3.04382073E-08 -2.71596965E-05
  3.26242253E-04  1.03267678E-04  1.07149121E-04  1.11311039E-08 -9.09653760E-04
 -1.18695803E-03  1.20741537E-03 -2.15122936E-07  1.20031741E-04 -6.99138045E-04
  4.15412477E-04  1.64926947E-04 -4.53036017E-08  9.06607896E-08  2.88798613E-04
  8.84775574E-05 -5.17779194E-05  3.98572214E-05 -5.18677847E-05  3.98241687E-05
 -1.54786880E-04 -2.82174216E-04 -1.56160328E-04  1.60124201E-04  1.02719631E-07
  3.84987702E-03  1.49013717E-03 -9.20681193E-04 -6.00969559E-07 -3.96891173E-04
 -3.46502965E-04 -9.37417094E-05  2.19642333E-04  3.48135425E-08 -1.15916916E-07