Title                                                                   
Freq      RB3LYP                                                      6-31G(d)            
Number of atoms                            I               10
Info1-9                                    I   N=           9
          18          18        1002           0           0         100
           6          18        -502
Full Title                                 C   N=           1
Title       
Route                                      C   N=           3
#p B3LYP/6-31G(d) Opt freq          
Charge                                     I                0
Multiplicity                               I                1
Number of electrons                        I               40
Number of alpha electrons                  I               20
Number of beta electrons                   I               20
Number of basis functions                  I               85
Number of independent functions            I               85
Number of point charges in /Mol/           I                0
Number of translation vectors              I                0
Atomic numbers                             I   N=          10
           7           6           6           1           1           8
           8           1           1           1
Nuclear charges                            R   N=          10
  7.00000000E+00  6.00000000E+00  6.00000000E+00  1.00000000E+00  1.00000000E+00
  8.00000000E+00  8.00000000E+00  1.00000000E+00  1.00000000E+00  1.00000000E+00
Current cartesian coordinates              R   N=          30
 -3.35570773E+00  2.33939610E-01 -1.44400799E-01 -1.21464047E+00 -1.50339318E+00
  2.06602871E-01  1.31064166E+00 -7.23282564E-02  9.05546822E-03 -1.15812833E+00
 -3.09033377E+00 -1.12344358E+00 -1.29544074E+00 -2.31392016E+00  2.10969076E+00
  3.32218344E+00 -1.13452777E+00 -1.66220654E-01  1.05040851E+00  2.44771536E+00
  1.07130875E-01 -7.96454807E-01  2.73368056E+00  2.17052450E-01 -3.96227691E+00
  2.28702544E-01 -1.96856480E+00 -4.85448777E+00 -2.46878563E-01  9.54838958E-01
Number of symbols in /Mol/                 I                0
Force Field                                I                0
Atom Types                                 C   N=          10
                                                            
                                                            
Int Atom Types                             I   N=          10
           0           0           0           0           0           0
           0           0           0           0
MM charges                                 R   N=          10
  0.00000000E+00  0.00000000E+00  0.00000000E+00  0.00000000E+00  0.00000000E+00
  0.00000000E+00  0.00000000E+00  0.00000000E+00  0.00000000E+00  0.00000000E+00
Integer atomic weights                     I   N=          10
          14          12          12           1           1          16
          16           1           1           1
Real atomic weights                        R   N=          10
  1.40030740E+01  1.20000000E+01  1.20000000E+01  1.00782504E+00  1.00782504E+00
  1.59949146E+01  1.59949146E+01  1.00782504E+00  1.00782504E+00  1.00782504E+00
Atom fragment info                         I   N=          10
           0           0           0           0           0           0
           0           0           0           0
Atom residue num                           I   N=          10
           0           0           0           0           0           0
           0           0           0           0
Nuclear spins                              I   N=          10
           2           0           0           1           1           0
           0           1           1           1
Nuclear ZEff                               R   N=          10
 -4.55000000E+00 -3.60000000E+00 -3.60000000E+00 -1.00000000E+00 -1.00000000E+00
 -5.60000000E+00 -5.60000000E+00 -1.00000000E+00 -1.00000000E+00 -1.00000000E+00
Nuclear ZNuc                               R   N=          10
  7.00000000E+00  6.00000000E+00  6.00000000E+00  1.00000000E+00  1.00000000E+00
  8.00000000E+00  8.00000000E+00  1.00000000E+00  1.00000000E+00  1.00000000E+00
Nuclear QMom                               R   N=          10
  2.04400000E+00  0.00000000E+00  0.00000000E+00  0.00000000E+00  0.00000000E+00
  0.00000000E+00  0.00000000E+00  0.00000000E+00  0.00000000E+00  0.00000000E+00
Nuclear GFac                               R   N=          10
  4.03761000E-01  0.00000000E+00  0.00000000E+00  2.79284600E+00  2.79284600E+00
  0.00000000E+00  0.00000000E+00  2.79284600E+00  2.79284600E+00  2.79284600E+00
MicOpt                                     I   N=          10
          -1          -1          -1          -1          -1          -1
          -1          -1          -1          -1
Number of residues                         I                0
Number of secondary structures             I                0
Redundant internal dimensions              I   N=           4
          36           9          13          14
Redundant internal coordinate indices      I   N=         144
           1           2           0           0           1           9
           0           0           1          10           0           0
           2           3           0           0           2           4
           0           0           2           5           0           0
           3           6           0           0           3           7
           0           0           7           8           0           0
           2           1           9           0           2           1
          10           0           9           1          10           0
           1           2           3           0           1           2
           4           0           1           2           5           0
           3           2           4           0           3           2
           5           0           4           2           5           0
           2           3           6           0           2           3
           7           0           6           3           7           0
           3           7           8           0           9           1
           2           3           9           1           2           4
           9           1           2           5          10           1
           2           3          10           1           2           4
          10           1           2           5           1           2
           3           6           1           2           3           7
           4           2           3           6           4           2
           3           7           5           2           3           6
           5           2           3           7           2           3
           7           8           6           3           7           8
Redundant internal coordinates             R   N=          36
  2.77951395E+00  1.92237559E+00  1.91985826E+00  2.90929917E+00  2.07137578E+00
  2.07007878E+00  2.28151043E+00  2.53534217E+00  1.87210121E+00  1.94033193E+00
  1.95250763E+00  1.87161571E+00  1.93113717E+00  2.00291641E+00  1.90790806E+00
  1.88553919E+00  1.86387678E+00  1.86648783E+00  2.14301681E+00  1.97926529E+00
  2.16063597E+00  1.82901534E+00  1.66656255E+00 -4.72388661E-01 -2.56872518E+00
 -2.52468694E+00  1.61954716E+00 -4.76789360E-01 -2.93221059E+00  2.33375140E-01
 -7.26224323E-01  2.43936141E+00  1.27620161E+00 -1.84139797E+00 -4.03534025E-02
  3.12551159E+00
ZRed-IntVec                                I   N=          36
           0           0           0           0           0           0
           0           0           0           0           0           0
           0           0           0           0           0           0
           0           0           0           0           0           0
           0           0           0           0           0           0
           0           0           0           0           0           0
ZRed-FPVec                                 R   N=          36
  0.00000000E+00  0.00000000E+00  0.00000000E+00  0.00000000E+00  0.00000000E+00
  0.00000000E+00  0.00000000E+00  0.00000000E+00  0.00000000E+00  0.00000000E+00
  0.00000000E+00  0.00000000E+00  0.00000000E+00  0.00000000E+00  0.00000000E+00
  0.00000000E+00  0.00000000E+00  0.00000000E+00  0.00000000E+00  0.00000000E+00
  0.00000000E+00  0.00000000E+00  0.00000000E+00  0.00000000E+00  0.00000000E+00
  0.00000000E+00  0.00000000E+00  0.00000000E+00  0.00000000E+00  0.00000000E+00
  0.00000000E+00  0.00000000E+00  0.00000000E+00  0.00000000E+00  0.00000000E+00
  0.00000000E+00
ZRed-Constraint1                           R   N=          36
  2.77951395E+00  1.92237559E+00  1.91985826E+00  2.90929917E+00  2.07137578E+00
  2.07007878E+00  2.28151043E+00  2.53534217E+00  1.87210121E+00  1.94033193E+00
  1.95250763E+00  1.87161571E+00  1.93113717E+00  2.00291641E+00  1.90790806E+00
  1.88553919E+00  1.86387678E+00  1.86648783E+00  2.14301681E+00  1.97926529E+00
  2.16063597E+00  1.82901534E+00  1.66656255E+00 -4.72388661E-01 -2.56872518E+00
 -2.52468694E+00  1.61954716E+00 -4.76789360E-01 -2.93221059E+00  2.33375140E-01
 -7.26224323E-01  2.43936141E+00  1.27620161E+00 -1.84139797E+00 -4.03534025E-02
  3.12551159E+00
ZRed-Constraint2                           R   N=          36
  2.75631456E+00  1.97661289E+00  1.97502989E+00  2.83963074E+00  2.10403254E+00
  2.09980713E+00  2.30675253E+00  2.55077788E+00  1.82848449E+00  1.90218564E+00
  1.89482654E+00  1.88311092E+00  1.92232200E+00  1.91298490E+00  1.91087162E+00
  1.92858560E+00  1.89551083E+00  1.89317485E+00  2.09388455E+00  2.10476379E+00
  2.08451940E+00  2.12114563E+00  1.15586378E+00 -9.69542845E-01 -3.04417210E+00
 -3.08039314E+00  1.07738555E+00 -9.97243709E-01 -2.09366894E+00  1.05432744E+00
  2.24488820E-02 -3.11274005E+00  2.09704123E+00 -1.03814770E+00  4.17582920E-03
 -3.13104722E+00
SymInf integers                            I   N=          26
           1           1           1           1           1           0
           0           0           0           0           0           0
           0           0           0           0           0           0
           0           0           0           0           0           0
           0           0
RotTr to input orientation                 R   N=          12
  9.44859541E-01  3.26076218E-01 -3.02447907E-02 -3.27436377E-01  9.42142038E-01
 -7.17899668E-02  5.08588793E-03  7.77346798E-02  9.96961109E-01 -9.03013773E+00
 -7.54251880E+00  6.67882302E-01
Number of contracted shells                I               30
Number of primitive shells                 I               75
Pure/Cartesian d shells                    I                1
Pure/Cartesian f shells                    I                0
Highest angular momentum                   I                2
Largest degree of contraction              I                6
Shell types                                I   N=          30
           0          -1          -1           2           0          -1
          -1           2           0          -1          -1           2
           0           0           0           0           0          -1
          -1           2           0          -1          -1           2
           0           0           0           0           0           0
Number of primitives per shell             I   N=          30
           6           3           1           1           6           3
           1           1           6           3           1           1
           3           1           3           1           6           3
           1           1           6           3           1           1
           3           1           3           1           3           1
Shell to atom map                          I   N=          30
           1           1           1           1           2           2
           2           2           3           3           3           3
           4           4           5           5           6           6
           6           6           7           7           7           7
           8           8           9           9          10          10
Primitive exponents                        R   N=          75
  4.17351146E+03  6.27457911E+02  1.42902093E+02  4.02343293E+01  1.28202129E+01
  4.39043701E+00  1.16263619E+01  2.71627981E+00  7.72218397E-01  2.12031498E-01
  8.00000000E-01  3.04752488E+03  4.57369518E+02  1.03948685E+02  2.92101553E+01
  9.28666296E+00  3.16392696E+00  7.86827235E+00  1.88128854E+00  5.44249258E-01
  1.68714478E-01  8.00000000E-01  3.04752488E+03  4.57369518E+02  1.03948685E+02
  2.92101553E+01  9.28666296E+00  3.16392696E+00  7.86827235E+00  1.88128854E+00
  5.44249258E-01  1.68714478E-01  8.00000000E-01  1.87311370E+01  2.82539436E+00
  6.40121692E-01  1.61277759E-01  1.87311370E+01  2.82539436E+00  6.40121692E-01
  1.61277759E-01  5.48467166E+03  8.25234946E+02  1.88046958E+02  5.29645000E+01
  1.68975704E+01  5.79963534E+00  1.55396162E+01  3.59993359E+00  1.01376175E+00
  2.70005823E-01  8.00000000E-01  5.48467166E+03  8.25234946E+02  1.88046958E+02
  5.29645000E+01  1.68975704E+01  5.79963534E+00  1.55396162E+01  3.59993359E+00
  1.01376175E+00  2.70005823E-01  8.00000000E-01  1.87311370E+01  2.82539436E+00
  6.40121692E-01  1.61277759E-01  1.87311370E+01  2.82539436E+00  6.40121692E-01
  1.61277759E-01  1.87311370E+01  2.82539436E+00  6.40121692E-01  1.61277759E-01
Contraction coefficients                   R   N=          75
  1.83477216E-03  1.39946270E-02  6.85865518E-02  2.32240873E-01  4.69069948E-01
  3.60455199E-01 -1.14961182E-01 -1.69117479E-01  1.14585195E+00  1.00000000E+00
  1.00000000E+00  1.83473713E-03  1.40373228E-02  6.88426223E-02  2.32184443E-01
  4.67941348E-01  3.62311985E-01 -1.19332420E-01 -1.60854152E-01  1.14345644E+00
  1.00000000E+00  1.00000000E+00  1.83473713E-03  1.40373228E-02  6.88426223E-02
  2.32184443E-01  4.67941348E-01  3.62311985E-01 -1.19332420E-01 -1.60854152E-01
  1.14345644E+00  1.00000000E+00  1.00000000E+00  3.34946043E-02  2.34726953E-01
  8.13757326E-01  1.00000000E+00  3.34946043E-02  2.34726953E-01  8.13757326E-01
  1.00000000E+00  1.83107443E-03  1.39501722E-02  6.84450781E-02  2.32714336E-01
  4.70192898E-01  3.58520853E-01 -1.10777550E-01 -1.48026263E-01  1.13076702E+00
  1.00000000E+00  1.00000000E+00  1.83107443E-03  1.39501722E-02  6.84450781E-02
  2.32714336E-01  4.70192898E-01  3.58520853E-01 -1.10777550E-01 -1.48026263E-01
  1.13076702E+00  1.00000000E+00  1.00000000E+00  3.34946043E-02  2.34726953E-01
  8.13757326E-01  1.00000000E+00  3.34946043E-02  2.34726953E-01  8.13757326E-01
  1.00000000E+00  3.34946043E-02  2.34726953E-01  8.13757326E-01  1.00000000E+00
P(S=P) Contraction coefficients            R   N=          75
  0.00000000E+00  0.00000000E+00  0.00000000E+00  0.00000000E+00  0.00000000E+00
  0.00000000E+00  6.75797439E-02  3.23907296E-01  7.40895140E-01  1.00000000E+00
  0.00000000E+00  0.00000000E+00  0.00000000E+00  0.00000000E+00  0.00000000E+00
  0.00000000E+00  0.00000000E+00  6.89990666E-02  3.16423961E-01  7.44308291E-01
  1.00000000E+00  0.00000000E+00  0.00000000E+00  0.00000000E+00  0.00000000E+00
  0.00000000E+00  0.00000000E+00  0.00000000E+00  6.89990666E-02  3.16423961E-01
  7.44308291E-01  1.00000000E+00  0.00000000E+00  0.00000000E+00  0.00000000E+00
  0.00000000E+00  0.00000000E+00  0.00000000E+00  0.00000000E+00  0.00000000E+00
  0.00000000E+00  0.00000000E+00  0.00000000E+00  0.00000000E+00  0.00000000E+00
  0.00000000E+00  0.00000000E+00  7.08742682E-02  3.39752839E-01  7.27158577E-01
  1.00000000E+00  0.00000000E+00  0.00000000E+00  0.00000000E+00  0.00000000E+00
  0.00000000E+00  0.00000000E+00  0.00000000E+00  7.08742682E-02  3.39752839E-01
  7.27158577E-01  1.00000000E+00  0.00000000E+00  0.00000000E+00  0.00000000E+00
  0.00000000E+00  0.00000000E+00  0.00000000E+00  0.00000000E+00  0.00000000E+00
  0.00000000E+00  0.00000000E+00  0.00000000E+00  0.00000000E+00  0.00000000E+00
Coordinates of each shell                  R   N=          90
 -3.35570773E+00  2.33939610E-01 -1.44400799E-01 -3.35570773E+00  2.33939610E-01
 -1.44400799E-01 -3.35570773E+00  2.33939610E-01 -1.44400799E-01 -3.35570773E+00
  2.33939610E-01 -1.44400799E-01 -1.21464047E+00 -1.50339318E+00  2.06602871E-01
 -1.21464047E+00 -1.50339318E+00  2.06602871E-01 -1.21464047E+00 -1.50339318E+00
  2.06602871E-01 -1.21464047E+00 -1.50339318E+00  2.06602871E-01  1.31064166E+00
 -7.23282564E-02  9.05546822E-03  1.31064166E+00 -7.23282564E-02  9.05546822E-03
  1.31064166E+00 -7.23282564E-02  9.05546822E-03  1.31064166E+00 -7.23282564E-02
  9.05546822E-03 -1.15812833E+00 -3.09033377E+00 -1.12344358E+00 -1.15812833E+00
 -3.09033377E+00 -1.12344358E+00 -1.29544074E+00 -2.31392016E+00  2.10969076E+00
 -1.29544074E+00 -2.31392016E+00  2.10969076E+00  3.32218344E+00 -1.13452777E+00
 -1.66220654E-01  3.32218344E+00 -1.13452777E+00 -1.66220654E-01  3.32218344E+00
 -1.13452777E+00 -1.66220654E-01  3.32218344E+00 -1.13452777E+00 -1.66220654E-01
  1.05040851E+00  2.44771536E+00  1.07130875E-01  1.05040851E+00  2.44771536E+00
  1.07130875E-01  1.05040851E+00  2.44771536E+00  1.07130875E-01  1.05040851E+00
  2.44771536E+00  1.07130875E-01 -7.96454807E-01  2.73368056E+00  2.17052450E-01
 -7.96454807E-01  2.73368056E+00  2.17052450E-01 -3.96227691E+00  2.28702544E-01
 -1.96856480E+00 -3.96227691E+00  2.28702544E-01 -1.96856480E+00 -4.85448777E+00
 -2.46878563E-01  9.54838958E-01 -4.85448777E+00 -2.46878563E-01  9.54838958E-01
Num ILSW                                   I              100
ILSW                                       I   N=         100
           0           1           0           0           2           0
           0           0           0           0         402          -1
           5           0           0           0           2           0
           0           0           0           0           1           0
           1           0           0           0           0           0
           0           0      100000           0          -1           0
           0           0           0           0           0           0
           0           0           0           1           0           0
           0 -2000000000           1           0           0           0
           0           0           4          52           0           0
           0           0           5           0           0           0
           0           0           0          10           0           1
           0           0           0           0           0           0
           0           0           0           0           0           0
           0           0           0           0           0           0
           0           0           0           0           0           0
           0           0           0           0
Num RLSW                                   I               52
RLSW                                       R   N=          52
  8.00000000E-01  7.20000000E-01  1.00000000E+00  8.10000000E-01  2.00000000E-01
  0.00000000E+00  0.00000000E+00  1.00000000E+00  0.00000000E+00  0.00000000E+00
  0.00000000E+00  0.00000000E+00  1.00000000E+00  0.00000000E+00  0.00000000E+00
  0.00000000E+00  0.00000000E+00  1.00000000E+00  0.00000000E+00  0.00000000E+00
  0.00000000E+00  0.00000000E+00  1.00000000E+00  0.00000000E+00  0.00000000E+00
  0.00000000E+00  0.00000000E+00  1.00000000E+00  0.00000000E+00  0.00000000E+00
  0.00000000E+00  0.00000000E+00  1.00000000E+00  0.00000000E+00  0.00000000E+00
  0.00000000E+00  0.00000000E+00  0.00000000E+00  1.00000000E+00  1.00000000E+00
  0.00000000E+00  1.00000000E+00  0.00000000E+00  0.00000000E+00  0.00000000E+00
  0.00000000E+00  0.00000000E+00  0.00000000E+00  0.00000000E+00  0.00000000E+00
  0.00000000E+00  0.00000000E+00
MxBond                                     I                4
NBond                                      I   N=          10
           3           4           3           1           1           1
           2           1           1           1
IBond                                      I   N=          40
           2           9          10           0           1           3
           4           5           2           6           7           0
           2           0           0           0           2           0
           0           0           3           0           0           0
           3           8           0           0           7           0
           0           0           1           0           0           0
           1           0           0           0
RBond                                      R   N=          40
  1.00000000E+00  1.00000000E+00  1.00000000E+00  0.00000000E+00  1.00000000E+00
  1.00000000E+00  1.00000000E+00  1.00000000E+00  1.00000000E+00  2.00000000E+00
  1.50000000E+00  0.00000000E+00  1.00000000E+00  0.00000000E+00  0.00000000E+00
  0.00000000E+00  1.00000000E+00  0.00000000E+00  0.00000000E+00  0.00000000E+00
  2.00000000E+00  0.00000000E+00  0.00000000E+00  0.00000000E+00  1.50000000E+00
  1.00000000E+00  0.00000000E+00  0.00000000E+00  1.00000000E+00  0.00000000E+00
  0.00000000E+00  0.00000000E+00  1.00000000E+00  0.00000000E+00  0.00000000E+00
  0.00000000E+00  1.00000000E+00  0.00000000E+00  0.00000000E+00  0.00000000E+00
Virial Ratio                               R      2.008891306908365E+00
SCF Energy                                 R     -2.844223812560580E+02
Total Energy                               R     -2.844223812560580E+02
RMS Force                                  R      1.745211384594875E-05
RMS Density                                R      3.249064116834444E-09
NImag                                      I                0
Job Status                                 I                1
Nuclear derivative order                   I                2
External E-field                           R   N=          35
  0.00000000E+00  0.00000000E+00  0.00000000E+00  0.00000000E+00  0.00000000E+00
  0.00000000E+00  0.00000000E+00  0.00000000E+00  0.00000000E+00  0.00000000E+00
  0.00000000E+00  0.00000000E+00  0.00000000E+00  0.00000000E+00  0.00000000E+00
  0.00000000E+00  0.00000000E+00  0.00000000E+00  0.00000000E+00  0.00000000E+00
  0.00000000E+00  0.00000000E+00  0.00000000E+00  0.00000000E+00  0.00000000E+00
  0.00000000E+00  0.00000000E+00  0.00000000E+00  0.00000000E+00  0.00000000E+00
  0.00000000E+00  0.00000000E+00  0.00000000E+00  0.00000000E+00  0.00000000E+00
IOpCl                                      I                0
IROHF                                      I                0
Alpha Orbital Energies                     R   N=          85
 -1.91755749E+01 -1.91200015E+01 -1.43617584E+01 -1.03065391E+01 -1.02406256E+01
 -1.08596808E+00 -1.00445713E+00 -9.17184816E-01 -7.18190722E-01 -5.87787527E-01
 -5.42755979E-01 -5.11851014E-01 -4.88048927E-01 -4.44675885E-01 -4.21605030E-01
 -3.87905712E-01 -3.67433195E-01 -3.00375990E-01 -2.98290525E-01 -2.53053669E-01
  1.85772232E-02  5.08154089E-02  1.05754052E-01  1.24441200E-01  1.39976169E-01
  1.85406941E-01  1.89225597E-01  2.42448123E-01  3.24483847E-01  3.79812449E-01
  5.18940964E-01  5.48492764E-01  5.67664004E-01  5.81336729E-01  6.30158667E-01
  6.73620323E-01  6.94484411E-01  7.34294656E-01  7.64604641E-01  8.02217329E-01
  8.33767341E-01  8.64183244E-01  8.77108160E-01  8.95256179E-01  9.18965334E-01
  9.42456556E-01  1.00836062E+00  1.02388479E+00  1.05919201E+00  1.10126097E+00
  1.11100115E+00  1.30483455E+00  1.35567895E+00  1.42155718E+00  1.45018122E+00
  1.47820189E+00  1.52689969E+00  1.71430912E+00  1.71978030E+00  1.77357159E+00
  1.79543533E+00  1.83865303E+00  1.87135482E+00  1.88009102E+00  1.96900314E+00
  1.99524120E+00  2.03463796E+00  2.07405768E+00  2.18245913E+00  2.23286425E+00
  2.36810601E+00  2.41676265E+00  2.47118788E+00  2.51759906E+00  2.57819402E+00
  2.67981482E+00  2.74543761E+00  2.86704443E+00  2.99652957E+00  3.09669063E+00
  3.78052796E+00  3.88307706E+00  4.11186825E+00  4.21748849E+00  4.49273308E+00
Alpha MO coefficients                      R   N=        7225
 -2.66687202E-08  2.92305406E-05  8.19644636E-06 -3.75728080E-05 -4.61300525E-06
 -2.10498172E-04 -1.93809440E-05  3.93070183E-04 -4.15358647E-05 -2.88617901E-05
 -8.73255642E-06  1.21006764E-05  2.63517842E-05  4.36904605E-06  2.13822033E-05
  1.55882557E-05  1.36975085E-04 -4.74148439E-07 -1.50471279E-05 -4.62547460E-06
 -7.46149715E-04 -9.29966804E-04  2.42770232E-04  6.79194807E-05 -3.81199988E-05
 -6.58929107E-06  1.78089692E-05 -5.42045113E-05  2.32924384E-05 -1.50909356E-05
 -9.02575125E-06  3.40633268E-04  1.96320327E-05  3.89489253E-04  8.16403475E-06
 -1.64722450E-03 -5.91919383E-04 -2.62824795E-03 -1.76916892E-05 -2.40532402E-05
 -2.97424379E-05 -2.75193557E-05  4.58298513E-05 -6.96619242E-08 -5.58721509E-06
  6.08199811E-05  6.13966969E-05  1.00297637E-05  5.19912360E-05 -3.99472661E-05
  5.83610509E-05 -3.93880409E-05 -4.49766666E-05  1.57471566E-06 -3.19737594E-05
  2.11174548E-04  4.19232342E-04 -5.47557513E-06 -1.31010337E-05 -4.22041551E-05
  4.61145004E-05  6.06563682E-06  4.95338198E-06 -5.33242084E-06  9.92694963E-01
  2.57361556E-02 -7.28920959E-04 -6.37807039E-04  2.41111308E-05  1.34718274E-02
  2.15690475E-04 -8.86097822E-04 -4.81182520E-05 -8.23340879E-03 -8.16630878E-03
 -8.20836422E-03 -5.25467102E-05 -2.28692630E-06  5.71453876E-06  4.06179545E-04
 -1.38305103E-03 -2.57873305E-05  4.05539876E-05  3.66751223E-05 -3.31155317E-05
  1.94310699E-05  7.63602928E-05  5.98583306E-05  3.74181703E-06 -1.86374115E-05
 -2.78708072E-05 -2.99292340E-04 -1.52822390E-04  2.21056920E-04 -3.25966575E-05
  7.68745418E-05  8.01794219E-05 -1.42011273E-05 -1.52423709E-05 -2.43201707E-05
  2.08349171E-05  1.14008903E-04 -3.30382836E-05  2.54016171E-08  3.20342866E-05
 -9.34789308E-04  7.96081431E-05 -6.56199377E-04 -3.09213113E-04  1.98756574E-05
  4.34250134E-06  4.08800142E-05 -1.82852498E-05  5.63671067E-06  3.83226373E-06
 -1.32258791E-05  4.02773727E-04 -7.22076655E-05  6.94691450E-05  1.40055015E-05
 -3.21387775E-03 -3.86215320E-03  1.98921572E-03  3.95777443E-04 -8.02761189E-04
 -2.40200750E-04 -6.33376214E-05  4.63937437E-04  6.50285089E-05 -4.47870310E-05
  8.28401169E-06 -1.75687169E-04  4.96507050E-05  2.02413771E-04  9.92695660E-01
  2.54857076E-02 -1.07234167E-03  5.67499061E-04  9.93170812E-05  1.54044205E-02
 -1.80929570E-03  9.68123058E-04  1.38950885E-04 -7.78616802E-03 -8.15637125E-03
 -8.30740320E-03 -3.12856449E-04 -5.06838726E-05  2.60754294E-05  7.13607738E-05
  1.56695949E-04 -5.41399096E-05 -2.69762498E-05  8.17769818E-06 -9.24285065E-04
  5.05136956E-04  2.51101347E-04 -4.81718649E-05  1.67110191E-05  8.61416945E-05
  7.46984313E-05  3.90799503E-05  6.18174704E-06  5.82216866E-07  7.70024081E-05
 -5.26835037E-05  3.90267787E-05  5.64939395E-05 -6.39335804E-05 -1.30860583E-04
  9.92671380E-01  3.46406934E-02 -3.80934415E-04 -9.56839344E-04 -2.71778266E-04
  4.09574904E-03  2.72195748E-04  5.12774837E-04  6.66879595E-05 -8.29738128E-03
 -8.33665850E-03 -8.28562102E-03  7.16197296E-05  1.20369772E-05  7.61410946E-06
 -4.98204783E-06  9.40198814E-05 -1.81070965E-04  1.64657544E-04 -2.76376235E-05
 -1.97963307E-04 -4.39073771E-05 -1.62199882E-04 -3.22126883E-05  7.33413438E-05
  3.74760362E-05 -3.73053798E-05 -9.08869733E-05  1.95388855E-05 -1.27831621E-05
  4.95579569E-06  5.89222557E-05  2.67500046E-07  2.71508652E-05 -2.21943668E-06
  2.36112025E-04  1.74565698E-04 -6.67643306E-05  3.37592912E-05 -5.93546034E-05
  3.08042853E-05  1.14726782E-06  9.44869085E-06 -7.31110758E-06 -2.08584378E-06
 -2.70571986E-05 -4.16648226E-05 -4.64706896E-06 -4.14839702E-05  9.24748237E-06
  4.67145909E-05 -7.83606776E-06  6.55701352E-06  5.33026708E-06 -2.79348750E-04
  5.34371854E-05 -2.87693792E-05 -2.31788204E-05  2.50910311E-05  3.47212123E-05
  2.06737564E-05 -8.94402779E-06  7.47112270E-07  5.87122528E-07 -9.41511933E-06
 -2.86612056E-05  7.33883004E-06 -2.55113159E-05 -3.61627237E-06  2.97108490E-04
 -1.60074805E-04  1.66680997E-04  1.94725761E-05 -1.44633645E-05 -6.16919309E-05
 -1.55961802E-05 -3.02123374E-05 -1.11698972E-05 -9.97306961E-07 -8.53333068E-05
 -5.16688684E-04  2.60253070E-04 -4.15237687E-04  3.09073276E-04 -3.69238466E-04
 -4.20016343E-05 -1.84783212E-04 -1.15830561E-04  7.25038039E-06  3.65787438E-05
  1.99408359E-04  3.49645147E-04  5.18502375E-05 -2.94792016E-04  1.23440050E-05
 -8.21451819E-05 -1.81117302E-04  2.45748569E-05  2.99901332E-05 -1.08649653E-06
  1.34282082E-03 -2.45563470E-04 -1.35482098E-04 -1.83043603E-04  2.00940971E-05
  4.88957357E-03  1.98736689E-03  1.68052902E-03  7.97580142E-06 -4.32857931E-04
 -2.67258458E-04 -1.90986275E-04 -1.11052561E-04  8.95182487E-06  1.42152248E-05
  9.92924094E-01  4.83246776E-02  4.54844097E-04  5.63338360E-04 -6.20533032E-06
 -6.94031878E-03  5.25564205E-03  9.77848155E-04 -4.65823897E-04 -8.53987285E-03
 -8.50895269E-03 -9.57309533E-03 -5.42841672E-04 -9.85015063E-05  7.84429981E-05
 -1.48525795E-04  3.50340844E-04 -2.21034985E-04  2.10060988E-04 -9.79970066E-05
  6.43121329E-04  2.34749602E-05  7.93196493E-05 -3.50787149E-06 -4.49568708E-03
  1.69059552E-03 -1.77305321E-03 -1.40740756E-04  1.21963368E-04  1.98481911E-04
  5.28412304E-04  3.10123272E-04  3.92221455E-05 -2.80634336E-05 -4.72714052E-05
  2.33441742E-04  6.12161044E-05  1.10468524E-04 -9.25423031E-06 -6.44423002E-04
 -9.80332342E-04  1.23054377E-03  1.48552108E-04  1.58844900E-04 -6.95815493E-04
  3.37313051E-04  2.43434063E-04  2.31581950E-05 -6.21011784E-05  7.60825164E-06
 -1.73129864E-06 -7.78943697E-05 -1.01274713E-04  7.10096809E-05  2.44060126E-04
 -1.49800730E-04 -2.51550274E-04 -1.44555431E-04  1.37597103E-04 -6.94540780E-05
  3.93459516E-03  1.28438880E-03 -9.55658413E-04  4.50449452E-04 -4.06192421E-04
 -3.93861877E-04 -8.64779979E-05  2.49292539E-04 -6.64237777E-05  4.33805790E-05