Title                                                                   
Freq      RB3LYP                                                      6-31G(d)            
Number of atoms                            I               10
Info1-9                                    I   N=           9
          18          18        1002           0           0         100
           6          18        -502
Full Title                                 C   N=           1
Title       
Route                                      C   N=           3
#p B3LYP/6-31G(d) Opt freq          
Charge                                     I                0
Multiplicity                               I                1
Number of electrons                        I               40
Number of alpha electrons                  I               20
Number of beta electrons                   I               20
Number of basis functions                  I               85
Number of independent functions            I               85
Number of point charges in /Mol/           I                0
Number of translation vectors              I                0
Atomic numbers                             I   N=          10
           7           6           6           1           1           8
           8           1           1           1
Nuclear charges                            R   N=          10
  7.00000000E+00  6.00000000E+00  6.00000000E+00  1.00000000E+00  1.00000000E+00
  8.00000000E+00  8.00000000E+00  1.00000000E+00  1.00000000E+00  1.00000000E+00
Current cartesian coordinates              R   N=          30
  3.69852124E+00 -8.07679185E-02  6.74563797E-05  1.30025950E+00 -1.40618087E+00
 -1.81631262E-03 -1.05172162E+00  2.94451646E-01 -3.67204859E-04  1.20692272E+00
 -2.65535444E+00  1.65593335E+00  1.20689006E+00 -2.65107679E+00 -1.66289072E+00
 -9.71035505E-01  2.56975101E+00 -2.12058210E-04 -3.31165528E+00 -9.32103399E-01
  1.13465703E-03 -3.04214841E+00 -2.75000836E+00  1.17596186E-03  3.75745491E+00
  1.08827943E+00  1.52980990E+00  3.75153104E+00  1.10273010E+00 -1.51878038E+00
Number of symbols in /Mol/                 I                0
Force Field                                I                0
Atom Types                                 C   N=          10
                                                            
                                                            
Int Atom Types                             I   N=          10
           0           0           0           0           0           0
           0           0           0           0
MM charges                                 R   N=          10
  0.00000000E+00  0.00000000E+00  0.00000000E+00  0.00000000E+00  0.00000000E+00
  0.00000000E+00  0.00000000E+00  0.00000000E+00  0.00000000E+00  0.00000000E+00
Integer atomic weights                     I   N=          10
          14          12          12           1           1          16
          16           1           1           1
Real atomic weights                        R   N=          10
  1.40030740E+01  1.20000000E+01  1.20000000E+01  1.00782504E+00  1.00782504E+00
  1.59949146E+01  1.59949146E+01  1.00782504E+00  1.00782504E+00  1.00782504E+00
Atom fragment info                         I   N=          10
           0           0           0           0           0           0
           0           0           0           0
Atom residue num                           I   N=          10
           0           0           0           0           0           0
           0           0           0           0
Nuclear spins                              I   N=          10
           2           0           0           1           1           0
           0           1           1           1
Nuclear ZEff                               R   N=          10
 -4.55000000E+00 -3.60000000E+00 -3.60000000E+00 -1.00000000E+00 -1.00000000E+00
 -5.60000000E+00 -5.60000000E+00 -1.00000000E+00 -1.00000000E+00 -1.00000000E+00
Nuclear ZNuc                               R   N=          10
  7.00000000E+00  6.00000000E+00  6.00000000E+00  1.00000000E+00  1.00000000E+00
  8.00000000E+00  8.00000000E+00  1.00000000E+00  1.00000000E+00  1.00000000E+00
Nuclear QMom                               R   N=          10
  2.04400000E+00  0.00000000E+00  0.00000000E+00  0.00000000E+00  0.00000000E+00
  0.00000000E+00  0.00000000E+00  0.00000000E+00  0.00000000E+00  0.00000000E+00
Nuclear GFac                               R   N=          10
  4.03761000E-01  0.00000000E+00  0.00000000E+00  2.79284600E+00  2.79284600E+00
  0.00000000E+00  0.00000000E+00  2.79284600E+00  2.79284600E+00  2.79284600E+00
MicOpt                                     I   N=          10
          -1          -1          -1          -1          -1          -1
          -1          -1          -1          -1
Number of residues                         I                0
Number of secondary structures             I                0
Redundant internal dimensions              I   N=           4
          36           9          13          14
Redundant internal coordinate indices      I   N=         144
           1           2           0           0           1           9
           0           0           1          10           0           0
           2           3           0           0           2           4
           0           0           2           5           0           0
           3           6           0           0           3           7
           0           0           7           8           0           0
           2           1           9           0           2           1
          10           0           9           1          10           0
           1           2           3           0           1           2
           4           0           1           2           5           0
           3           2           4           0           3           2
           5           0           4           2           5           0
           2           3           6           0           2           3
           7           0           6           3           7           0
           3           7           8           0           9           1
           2           3           9           1           2           4
           9           1           2           5          10           1
           2           3          10           1           2           4
          10           1           2           5           1           2
           3           6           1           2           3           7
           4           2           3           6           4           2
           3           7           5           2           3           6
           5           2           3           7           2           3
           7           8           6           3           7           8
Redundant internal coordinates             R   N=          36
  2.74014278E+00  1.92620270E+00  1.92623372E+00  2.90240732E+00  2.07780661E+00
  2.07789603E+00  2.27672955E+00  2.57133033E+00  1.83777377E+00  1.89746746E+00
  1.89730263E+00  1.82603208E+00  2.01067434E+00  1.90664286E+00  1.90675072E+00
  1.89174303E+00  1.89128455E+00  1.84999713E+00  2.16138731E+00  2.01830313E+00
  2.10349485E+00  1.92086871E+00  9.93258330E-01 -1.14035511E+00  3.12635338E+00
 -9.84879214E-01 -3.11849265E+00  1.14821584E+00  1.24745816E-03 -3.14018964E+00
  2.14283761E+00 -9.98599488E-01 -2.14012945E+00  1.00161875E+00  8.41367251E-05
 -3.14135853E+00
ZRed-IntVec                                I   N=          36
           0           0           0           0           0           0
           0           0           0           0           0           0
           0           0           0           0           0           0
           0           0           0           0           0           0
           0           0           0           0           0           0
           0           0           0           0           0           0
ZRed-FPVec                                 R   N=          36
  0.00000000E+00  0.00000000E+00  0.00000000E+00  0.00000000E+00  0.00000000E+00
  0.00000000E+00  0.00000000E+00  0.00000000E+00  0.00000000E+00  0.00000000E+00
  0.00000000E+00  0.00000000E+00  0.00000000E+00  0.00000000E+00  0.00000000E+00
  0.00000000E+00  0.00000000E+00  0.00000000E+00  0.00000000E+00  0.00000000E+00
  0.00000000E+00  0.00000000E+00  0.00000000E+00  0.00000000E+00  0.00000000E+00
  0.00000000E+00  0.00000000E+00  0.00000000E+00  0.00000000E+00  0.00000000E+00
  0.00000000E+00  0.00000000E+00  0.00000000E+00  0.00000000E+00  0.00000000E+00
  0.00000000E+00
ZRed-Constraint1                           R   N=          36
  2.74014278E+00  1.92620270E+00  1.92623372E+00  2.90240732E+00  2.07780661E+00
  2.07789603E+00  2.27672955E+00  2.57133033E+00  1.83777377E+00  1.89746746E+00
  1.89730263E+00  1.82603208E+00  2.01067434E+00  1.90664286E+00  1.90675072E+00
  1.89174303E+00  1.89128455E+00  1.84999713E+00  2.16138731E+00  2.01830313E+00
  2.10349485E+00  1.92086871E+00  9.93258330E-01 -1.14035511E+00  3.12635338E+00
 -9.84879214E-01 -3.11849265E+00  1.14821584E+00  1.24745816E-03 -3.14018964E+00
  2.14283761E+00 -9.98599488E-01 -2.14012945E+00  1.00161875E+00  8.41367251E-05
 -3.14135853E+00
ZRed-Constraint2                           R   N=          36
  2.76302044E+00  1.97686482E+00  1.97709636E+00  2.85422611E+00  2.09908524E+00
  2.09928688E+00  2.30818314E+00  2.54979957E+00  1.82843371E+00  1.91618688E+00
  1.91747827E+00  1.90967026E+00  1.96433375E+00  1.90200507E+00  1.90248666E+00
  1.90070566E+00  1.90162494E+00  1.89139450E+00  2.11052511E+00  2.09282679E+00
  2.07983340E+00  2.11995305E+00  1.05906858E+00 -1.05122743E+00 -3.11232706E+00
 -1.04183830E+00  3.13105100E+00  1.06995137E+00  6.00570430E-04 -3.14085887E+00
  2.11164065E+00 -1.02981879E+00 -2.11168214E+00  1.03004373E+00 -3.53508361E-04
  3.14137002E+00
SymInf integers                            I   N=          26
           1           1           1           1           1           0
           0           0           0           0           0           0
           0           0           0           0           0           0
           0           0           0           0           0           0
           0           0
RotTr to input orientation                 R   N=          12
 -9.63585774E-01 -2.13377256E-01  1.61160176E-01 -2.28332353E-01  9.70240678E-01
 -8.06062206E-02 -1.39164624E-01 -1.14469090E-01 -9.83631046E-01 -6.79610700E+00
 -3.80604968E+00  5.27202300E-01
Number of contracted shells                I               30
Number of primitive shells                 I               75
Pure/Cartesian d shells                    I                1
Pure/Cartesian f shells                    I                0
Highest angular momentum                   I                2
Largest degree of contraction              I                6
Shell types                                I   N=          30
           0          -1          -1           2           0          -1
          -1           2           0          -1          -1           2
           0           0           0           0           0          -1
          -1           2           0          -1          -1           2
           0           0           0           0           0           0
Number of primitives per shell             I   N=          30
           6           3           1           1           6           3
           1           1           6           3           1           1
           3           1           3           1           6           3
           1           1           6           3           1           1
           3           1           3           1           3           1
Shell to atom map                          I   N=          30
           1           1           1           1           2           2
           2           2           3           3           3           3
           4           4           5           5           6           6
           6           6           7           7           7           7
           8           8           9           9          10          10
Primitive exponents                        R   N=          75
  4.17351146E+03  6.27457911E+02  1.42902093E+02  4.02343293E+01  1.28202129E+01
  4.39043701E+00  1.16263619E+01  2.71627981E+00  7.72218397E-01  2.12031498E-01
  8.00000000E-01  3.04752488E+03  4.57369518E+02  1.03948685E+02  2.92101553E+01
  9.28666296E+00  3.16392696E+00  7.86827235E+00  1.88128854E+00  5.44249258E-01
  1.68714478E-01  8.00000000E-01  3.04752488E+03  4.57369518E+02  1.03948685E+02
  2.92101553E+01  9.28666296E+00  3.16392696E+00  7.86827235E+00  1.88128854E+00
  5.44249258E-01  1.68714478E-01  8.00000000E-01  1.87311370E+01  2.82539436E+00
  6.40121692E-01  1.61277759E-01  1.87311370E+01  2.82539436E+00  6.40121692E-01
  1.61277759E-01  5.48467166E+03  8.25234946E+02  1.88046958E+02  5.29645000E+01
  1.68975704E+01  5.79963534E+00  1.55396162E+01  3.59993359E+00  1.01376175E+00
  2.70005823E-01  8.00000000E-01  5.48467166E+03  8.25234946E+02  1.88046958E+02
  5.29645000E+01  1.68975704E+01  5.79963534E+00  1.55396162E+01  3.59993359E+00
  1.01376175E+00  2.70005823E-01  8.00000000E-01  1.87311370E+01  2.82539436E+00
  6.40121692E-01  1.61277759E-01  1.87311370E+01  2.82539436E+00  6.40121692E-01
  1.61277759E-01  1.87311370E+01  2.82539436E+00  6.40121692E-01  1.61277759E-01
Contraction coefficients                   R   N=          75
  1.83477216E-03  1.39946270E-02  6.85865518E-02  2.32240873E-01  4.69069948E-01
  3.60455199E-01 -1.14961182E-01 -1.69117479E-01  1.14585195E+00  1.00000000E+00
  1.00000000E+00  1.83473713E-03  1.40373228E-02  6.88426223E-02  2.32184443E-01
  4.67941348E-01  3.62311985E-01 -1.19332420E-01 -1.60854152E-01  1.14345644E+00
  1.00000000E+00  1.00000000E+00  1.83473713E-03  1.40373228E-02  6.88426223E-02
  2.32184443E-01  4.67941348E-01  3.62311985E-01 -1.19332420E-01 -1.60854152E-01
  1.14345644E+00  1.00000000E+00  1.00000000E+00  3.34946043E-02  2.34726953E-01
  8.13757326E-01  1.00000000E+00  3.34946043E-02  2.34726953E-01  8.13757326E-01
  1.00000000E+00  1.83107443E-03  1.39501722E-02  6.84450781E-02  2.32714336E-01
  4.70192898E-01  3.58520853E-01 -1.10777550E-01 -1.48026263E-01  1.13076702E+00
  1.00000000E+00  1.00000000E+00  1.83107443E-03  1.39501722E-02  6.84450781E-02
  2.32714336E-01  4.70192898E-01  3.58520853E-01 -1.10777550E-01 -1.48026263E-01
  1.13076702E+00  1.00000000E+00  1.00000000E+00  3.34946043E-02  2.34726953E-01
  8.13757326E-01  1.00000000E+00  3.34946043E-02  2.34726953E-01  8.13757326E-01
  1.00000000E+00  3.34946043E-02  2.34726953E-01  8.13757326E-01  1.00000000E+00
P(S=P) Contraction coefficients            R   N=          75
  0.00000000E+00  0.00000000E+00  0.00000000E+00  0.00000000E+00  0.00000000E+00
  0.00000000E+00  6.75797439E-02  3.23907296E-01  7.40895140E-01  1.00000000E+00
  0.00000000E+00  0.00000000E+00  0.00000000E+00  0.00000000E+00  0.00000000E+00
  0.00000000E+00  0.00000000E+00  6.89990666E-02  3.16423961E-01  7.44308291E-01
  1.00000000E+00  0.00000000E+00  0.00000000E+00  0.00000000E+00  0.00000000E+00
  0.00000000E+00  0.00000000E+00  0.00000000E+00  6.89990666E-02  3.16423961E-01
  7.44308291E-01  1.00000000E+00  0.00000000E+00  0.00000000E+00  0.00000000E+00
  0.00000000E+00  0.00000000E+00  0.00000000E+00  0.00000000E+00  0.00000000E+00
  0.00000000E+00  0.00000000E+00  0.00000000E+00  0.00000000E+00  0.00000000E+00
  0.00000000E+00  0.00000000E+00  7.08742682E-02  3.39752839E-01  7.27158577E-01
  1.00000000E+00  0.00000000E+00  0.00000000E+00  0.00000000E+00  0.00000000E+00
  0.00000000E+00  0.00000000E+00  0.00000000E+00  7.08742682E-02  3.39752839E-01
  7.27158577E-01  1.00000000E+00  0.00000000E+00  0.00000000E+00  0.00000000E+00
  0.00000000E+00  0.00000000E+00  0.00000000E+00  0.00000000E+00  0.00000000E+00
  0.00000000E+00  0.00000000E+00  0.00000000E+00  0.00000000E+00  0.00000000E+00
Coordinates of each shell                  R   N=          90
  3.69852124E+00 -8.07679185E-02  6.74563797E-05  3.69852124E+00 -8.07679185E-02
  6.74563797E-05  3.69852124E+00 -8.07679185E-02  6.74563797E-05  3.69852124E+00
 -8.07679185E-02  6.74563797E-05  1.30025950E+00 -1.40618087E+00 -1.81631262E-03
  1.30025950E+00 -1.40618087E+00 -1.81631262E-03  1.30025950E+00 -1.40618087E+00
 -1.81631262E-03  1.30025950E+00 -1.40618087E+00 -1.81631262E-03 -1.05172162E+00
  2.94451646E-01 -3.67204859E-04 -1.05172162E+00  2.94451646E-01 -3.67204859E-04
 -1.05172162E+00  2.94451646E-01 -3.67204859E-04 -1.05172162E+00  2.94451646E-01
 -3.67204859E-04  1.20692272E+00 -2.65535444E+00  1.65593335E+00  1.20692272E+00
 -2.65535444E+00  1.65593335E+00  1.20689006E+00 -2.65107679E+00 -1.66289072E+00
  1.20689006E+00 -2.65107679E+00 -1.66289072E+00 -9.71035505E-01  2.56975101E+00
 -2.12058210E-04 -9.71035505E-01  2.56975101E+00 -2.12058210E-04 -9.71035505E-01
  2.56975101E+00 -2.12058210E-04 -9.71035505E-01  2.56975101E+00 -2.12058210E-04
 -3.31165528E+00 -9.32103399E-01  1.13465703E-03 -3.31165528E+00 -9.32103399E-01
  1.13465703E-03 -3.31165528E+00 -9.32103399E-01  1.13465703E-03 -3.31165528E+00
 -9.32103399E-01  1.13465703E-03 -3.04214841E+00 -2.75000836E+00  1.17596186E-03
 -3.04214841E+00 -2.75000836E+00  1.17596186E-03  3.75745491E+00  1.08827943E+00
  1.52980990E+00  3.75745491E+00  1.08827943E+00  1.52980990E+00  3.75153104E+00
  1.10273010E+00 -1.51878038E+00  3.75153104E+00  1.10273010E+00 -1.51878038E+00
Num ILSW                                   I              100
ILSW                                       I   N=         100
           0           1           0           0           2           0
           0           0           0           0         402          -1
           5           0           0           0           2           0
           0           0           0           0           1           0
           1           0           0           0           0           0
           0           0      100000           0          -1           0
           0           0           0           0           0           0
           0           0           0           1           0           0
           0 -2000000000           1           0           0           0
           0           0           4          52           0           0
           0           0           5           0           0           0
           0           0           0          10           0           1
           0           0           0           0           0           0
           0           0           0           0           0           0
           0           0           0           0           0           0
           0           0           0           0           0           0
           0           0           0           0
Num RLSW                                   I               52
RLSW                                       R   N=          52
  8.00000000E-01  7.20000000E-01  1.00000000E+00  8.10000000E-01  2.00000000E-01
  0.00000000E+00  0.00000000E+00  1.00000000E+00  0.00000000E+00  0.00000000E+00
  0.00000000E+00  0.00000000E+00  1.00000000E+00  0.00000000E+00  0.00000000E+00
  0.00000000E+00  0.00000000E+00  1.00000000E+00  0.00000000E+00  0.00000000E+00
  0.00000000E+00  0.00000000E+00  1.00000000E+00  0.00000000E+00  0.00000000E+00
  0.00000000E+00  0.00000000E+00  1.00000000E+00  0.00000000E+00  0.00000000E+00
  0.00000000E+00  0.00000000E+00  1.00000000E+00  0.00000000E+00  0.00000000E+00
  0.00000000E+00  0.00000000E+00  0.00000000E+00  1.00000000E+00  1.00000000E+00
  0.00000000E+00  1.00000000E+00  0.00000000E+00  0.00000000E+00  0.00000000E+00
  0.00000000E+00  0.00000000E+00  0.00000000E+00  0.00000000E+00  0.00000000E+00
  0.00000000E+00  0.00000000E+00
MxBond                                     I                4
NBond                                      I   N=          10
           3           4           3           1           1           1
           2           1           1           1
IBond                                      I   N=          40
           2           9          10           0           1           3
           4           5           2           6           7           0
           2           0           0           0           2           0
           0           0           3           0           0           0
           3           8           0           0           7           0
           0           0           1           0           0           0
           1           0           0           0
RBond                                      R   N=          40
  1.00000000E+00  1.00000000E+00  1.00000000E+00  0.00000000E+00  1.00000000E+00
  1.00000000E+00  1.00000000E+00  1.00000000E+00  1.00000000E+00  2.00000000E+00
  1.50000000E+00  0.00000000E+00  1.00000000E+00  0.00000000E+00  0.00000000E+00
  0.00000000E+00  1.00000000E+00  0.00000000E+00  0.00000000E+00  0.00000000E+00
  2.00000000E+00  0.00000000E+00  0.00000000E+00  0.00000000E+00  1.50000000E+00
  1.00000000E+00  0.00000000E+00  0.00000000E+00  1.00000000E+00  0.00000000E+00
  0.00000000E+00  0.00000000E+00  1.00000000E+00  0.00000000E+00  0.00000000E+00
  0.00000000E+00  1.00000000E+00  0.00000000E+00  0.00000000E+00  0.00000000E+00
Virial Ratio                               R      2.008863946846990E+00
SCF Energy                                 R     -2.844143052591491E+02
Total Energy                               R     -2.844143052591491E+02
RMS Force                                  R      6.097543985520726E-05
RMS Density                                R      3.713249175928821E-09
NImag                                      I                0
Job Status                                 I                1
Nuclear derivative order                   I                2
External E-field                           R   N=          35
  0.00000000E+00  0.00000000E+00  0.00000000E+00  0.00000000E+00  0.00000000E+00
  0.00000000E+00  0.00000000E+00  0.00000000E+00  0.00000000E+00  0.00000000E+00
  0.00000000E+00  0.00000000E+00  0.00000000E+00  0.00000000E+00  0.00000000E+00
  0.00000000E+00  0.00000000E+00  0.00000000E+00  0.00000000E+00  0.00000000E+00
  0.00000000E+00  0.00000000E+00  0.00000000E+00  0.00000000E+00  0.00000000E+00
  0.00000000E+00  0.00000000E+00  0.00000000E+00  0.00000000E+00  0.00000000E+00
  0.00000000E+00  0.00000000E+00  0.00000000E+00  0.00000000E+00  0.00000000E+00
IOpCl                                      I                0
IROHF                                      I                0
Alpha Orbital Energies                     R   N=          85
 -1.92029072E+01 -1.91417144E+01 -1.43280293E+01 -1.03217710E+01 -1.02402616E+01
 -1.10494875E+00 -1.02501633E+00 -8.98287006E-01 -7.14776607E-01 -6.19140841E-01
 -5.32520417E-01 -5.17645708E-01 -4.64691624E-01 -4.44359590E-01 -4.23651485E-01
 -4.01240600E-01 -3.84050176E-01 -3.22480169E-01 -2.84386377E-01 -2.53085911E-01
  5.97662751E-03  4.59309641E-02  7.75454720E-02  1.31944229E-01  1.33878556E-01
  1.80064497E-01  2.08125347E-01  2.29546554E-01  3.18821227E-01  3.67603198E-01
  5.21289043E-01  5.29117878E-01  5.56430387E-01  6.10061658E-01  6.32262416E-01
  6.66813313E-01  7.26258076E-01  7.30902832E-01  7.70046015E-01  7.73030062E-01
  8.35302245E-01  8.66975908E-01  8.81566440E-01  8.96735687E-01  9.04391075E-01
  9.37684165E-01  9.41234552E-01  1.01294599E+00  1.06697894E+00  1.07161728E+00
  1.11539876E+00  1.29707401E+00  1.36023789E+00  1.40884303E+00  1.43119146E+00
  1.51937144E+00  1.54165992E+00  1.66671475E+00  1.68970558E+00  1.77791505E+00
  1.78032491E+00  1.79953217E+00  1.88223845E+00  1.88467781E+00  1.96867723E+00
  2.01308477E+00  2.06520896E+00  2.06695370E+00  2.17073706E+00  2.26201850E+00
  2.37436903E+00  2.38730976E+00  2.47644570E+00  2.47952505E+00  2.58160090E+00
  2.63781591E+00  2.73638989E+00  2.85124327E+00  2.98242564E+00  3.07541065E+00
  3.71705318E+00  3.87887985E+00  4.05469349E+00  4.20683986E+00  4.45670470E+00
Alpha MO coefficients                      R   N=        7225
  1.02128778E-05  2.36148491E-05 -4.52930825E-05  1.08158375E-05  1.56625036E-07
  2.30890929E-04 -6.09035054E-05 -2.07779932E-04 -1.34033491E-06  2.20621358E-05
  3.27906977E-05  3.90439087E-05  4.29731962E-05  5.86852417E-08  2.09748607E-08
  2.89496660E-05  1.95407601E-04  5.27179377E-05 -3.77404630E-06 -7.75196475E-08
 -1.31983432E-03 -1.78737101E-04 -5.75426526E-04  6.33004055E-07 -3.42492956E-05
 -2.36949752E-05  7.28492339E-05  7.81216607E-06  3.34740720E-08 -7.27360447E-08
 -7.59233039E-06  3.15198132E-04 -3.93399228E-04 -1.17111004E-04  2.58018133E-07
 -1.92113093E-03  2.61877979E-03  4.07796763E-04 -1.82746501E-06  5.03983118E-05
 -3.02563963E-05 -9.90133978E-06  1.17643636E-05 -4.97305968E-08  4.84571242E-09
  3.85712715E-06  1.08970443E-04  4.11152203E-06  1.09526336E-04 -3.65891095E-05
  4.20666597E-05  5.10478687E-05 -9.31272840E-06 -3.33962132E-08  1.60519771E-04
 -4.55771026E-04 -1.54841445E-05  3.05293180E-07 -5.87276861E-05 -4.81822122E-05
  4.92230962E-05 -1.15275511E-05  8.43210149E-08  2.87741856E-09  9.92710528E-01
  2.57769470E-02  8.15664183E-04 -5.94929641E-04 -4.83394721E-07  1.31680943E-02
  7.14415826E-04  7.23867875E-04 -4.42434585E-07 -8.17879126E-03 -8.17904815E-03
 -8.15829261E-03  6.13137415E-05  2.03462281E-08 -2.91099540E-08  4.33997507E-04
 -1.11369360E-03  3.06027775E-05  1.83723947E-05  3.05882119E-05  1.69063833E-05
  2.69430582E-05  9.06736151E-05 -2.53424287E-05 -3.29594612E-06  2.41628373E-07
 -8.89519461E-04  3.40364615E-04  3.10408222E-04 -7.79278425E-07  6.89015949E-05
  3.61013838E-05  6.30078748E-05 -5.70858323E-05 -1.75403636E-07 -2.16986473E-08
  2.68480522E-06  3.07134843E-05 -9.10236023E-06  6.26691604E-06  1.06069397E-07
 -4.23579275E-04  1.32089415E-03  4.45336957E-04 -3.56384241E-07  9.72139059E-06
  1.57298878E-05 -1.77866843E-05  4.21048970E-05  1.86745417E-07  1.17097271E-07
 -6.68637928E-06  3.99721451E-04 -4.20833365E-05 -1.18155820E-04  8.56141580E-08
 -3.01960023E-03  2.52052477E-05 -4.28295036E-03 -6.21720043E-07 -1.67630117E-05
 -9.83201527E-04 -4.47552824E-05 -3.85044303E-05 -2.27737996E-08 -6.71435761E-08
  2.45041452E-05  4.96447106E-05  2.42640178E-05  4.91535177E-05  9.92701905E-01
  2.55178666E-02 -4.07861623E-05 -1.22267858E-03 -1.52400858E-07  1.52308511E-02
 -1.05078528E-04 -1.98473871E-03 -1.18086686E-07 -8.27960480E-03 -7.63572479E-03
 -8.29305619E-03  3.14739979E-05 -4.07641704E-08  4.25195168E-08  5.54182425E-05
  1.21677946E-04  3.45135035E-05 -4.40669034E-05 -4.47307020E-08 -6.51909484E-04
 -3.93421104E-04  3.60102114E-04  3.89175545E-07  5.65416808E-05 -3.55679382E-05
  6.53580054E-05 -8.18398591E-06  2.07811576E-08  1.55332266E-08  9.62397290E-05
 -1.17791267E-04  6.77722390E-05 -1.00775450E-04  6.85007861E-05 -1.04834887E-04
  9.92710403E-01  3.46872516E-02 -9.98387182E-04  7.70670353E-04  5.70084867E-06
  3.77733606E-03  3.94044753E-04 -3.54645006E-04 -2.51438024E-06 -8.25411515E-03
 -8.16655787E-03 -8.16709067E-03 -2.19367093E-06  1.49259580E-07  5.04569364E-08
 -6.51191833E-06  1.28093379E-04  2.61559030E-04  1.18385817E-04 -4.76085304E-09
  1.67046730E-04 -6.02767362E-04  5.23632909E-05  1.58203614E-06  5.42618356E-05
 -2.69203853E-05 -4.31442924E-05  9.70276275E-06  2.70735531E-09 -4.90219072E-08
  2.89912280E-06  7.96566180E-05 -3.40215999E-05  1.74944745E-05 -1.69867494E-08
 -3.54716069E-04  1.21471367E-04  6.54927512E-04 -3.78265500E-07 -9.27446594E-05
 -8.08977372E-06 -8.09013676E-06 -6.67194579E-06 -1.49032820E-08  6.61979089E-08
 -2.16623387E-05 -5.62024481E-05 -2.12026354E-05 -5.55928411E-05  1.68333510E-05
  8.31023128E-05 -8.30886936E-06 -6.14112594E-06 -1.41371920E-08 -5.47947872E-04
 -1.17266075E-06  1.39153223E-04  7.93226237E-08  4.31521780E-05  3.42972810E-05
  4.68676747E-05  7.20313207E-06 -3.11216095E-08 -1.07879193E-08 -1.85900342E-05
 -8.63747732E-05 -5.71561123E-06  2.68955240E-06  2.28547271E-09  5.23138543E-04
  1.90828969E-04  1.07760756E-05 -8.13713273E-08 -2.41184489E-05 -5.04843128E-05
 -5.73311765E-05  1.70770485E-05 -2.23454185E-08 -1.13854322E-10 -2.75937088E-05
 -1.31035780E-06  2.86746652E-04 -3.65137806E-04  2.86858515E-04 -3.65606706E-04
 -3.47312543E-05 -1.53450812E-04  6.49253407E-05  2.06978631E-05 -1.94483591E-07
  5.52950805E-04 -1.99834962E-04 -3.40664472E-04  9.26836718E-07 -3.20777702E-05
 -2.10723002E-06 -1.53209205E-04  2.08308157E-05  9.69141373E-08  4.06059746E-07
  1.09357426E-03 -2.74918261E-04  1.62742530E-04 -1.78407423E-04 -3.13593265E-07
  4.96571417E-03 -2.82265938E-03  1.44665111E-03  1.83891567E-06 -3.87506519E-04
 -2.89248725E-04 -1.61381961E-04  9.65246019E-05 -2.46143453E-08 -1.63221769E-07
  9.92915906E-01  4.83112296E-02 -8.67155296E-04  3.06532064E-04  3.20229727E-07
 -7.34972307E-03 -3.48284867E-03  4.28750501E-03  2.65822215E-06 -8.85968923E-03
 -8.22966767E-03 -9.60041079E-03  2.96922335E-04 -6.02085291E-07 -9.96536585E-08
 -2.18058726E-04  2.79613164E-04 -2.18149531E-04  2.80736520E-04 -1.17753945E-04
  5.90225253E-04 -7.46952570E-05 -1.14244754E-05  2.67393946E-08 -4.20074544E-03
  9.28390211E-04  2.19819844E-03 -2.79193608E-07  3.44922148E-04 -9.58392905E-05
  4.81942636E-04 -2.01600527E-04  9.79223510E-08  1.87898472E-08 -3.98436999E-05
  2.43837072E-04 -1.26538180E-04  3.19106901E-05  9.11247624E-08 -7.44045322E-04
 -7.55780841E-04 -1.51454793E-03  4.52259594E-07 -4.42123460E-04 -1.09538555E-04
  3.01205152E-04 -5.76301554E-04  5.73088037E-07  3.87182852E-07 -7.91266550E-05
 -4.32532015E-05 -5.08636997E-05  1.19663038E-04 -5.06291285E-05  1.22781677E-04
 -1.50012417E-04 -2.62981466E-04  1.56565765E-04  1.48770631E-04  6.81971418E-07
  3.86549859E-03 -1.54950008E-03 -8.53420535E-04 -3.98381107E-06 -4.26274242E-04
 -2.86050742E-04 -8.29475112E-05 -1.89599323E-04 -1.41878949E-07 -5.22031475E-07