finite field calculation                                                
SP        RCCSD(T)-FC                                                 Gen                 
Number of atoms                            I                3
Info1-9                                    I   N=           9
          99          98           0           0           0         111
           1          17         301
Charge                                     I                0
Multiplicity                               I                1
Number of electrons                        I               10
Number of alpha electrons                  I                5
Number of beta electrons                   I                5
Number of basis functions                  I              126
Number of independent functions            I              126
Number of point charges in /Mol/           I                0
Number of translation vectors              I                0
Atomic numbers                             I   N=           3
           8           1           1
Nuclear charges                            R   N=           3
  8.00000000E+00  1.00000000E+00  1.00000000E+00
Current cartesian coordinates              R   N=           9
  0.00000000E+00  0.00000000E+00  2.19030232E-01  0.00000000E+00  1.45230387E+00
 -8.76120932E-01  0.00000000E+00 -1.45230387E+00 -8.76120932E-01
Force Field                                I                0
Int Atom Types                             I   N=           3
           0           0           0
MM charges                                 R   N=           3
  0.00000000E+00  0.00000000E+00  0.00000000E+00
Integer atomic weights                     I   N=           3
          16           1           1
Real atomic weights                        R   N=           3
  1.59949146E+01  1.00782504E+00  1.00782504E+00
Atom fragment info                         I   N=           3
           0           0           0
Atom residue num                           I   N=           3
           0           0           0
Nuclear spins                              I   N=           3
           0           1           1
Nuclear ZEff                               R   N=           3
 -5.60000000E+00 -1.00000000E+00 -1.00000000E+00
Nuclear ZNuc                               R   N=           3
  8.00000000E+00  1.00000000E+00  1.00000000E+00
Nuclear QMom                               R   N=           3
  0.00000000E+00  0.00000000E+00  0.00000000E+00
Nuclear GFac                               R   N=           3
  0.00000000E+00  2.79284600E+00  2.79284600E+00
MicOpt                                     I   N=           3
          -1          -1          -1
Number of contracted shells                I               42
Number of primitive shells                 I               59
Pure/Cartesian d shells                    I                0
Pure/Cartesian f shells                    I                0
Highest angular momentum                   I                3
Largest degree of contraction              I                7
Shell types                                I   N=          42
           0           0           0           0           0           0
           1           1           1           1           1          -2
          -2          -2          -2          -3          -3          -3
           0           0           0           0           0           1
           1           1           1          -2          -2          -2
           0           0           0           0           0           1
           1           1           1          -2          -2          -2
Number of primitives per shell             I   N=          42
           7           6           1           1           1           1
           3           1           1           1           1           1
           1           1           1           1           1           1
           3           1           1           1           1           1
           1           1           1           1           1           1
           3           1           1           1           1           1
           1           1           1           1           1           1
Shell to atom map                          I   N=          42
           1           1           1           1           1           1
           1           1           1           1           1           1
           1           1           1           1           1           1
           2           2           2           2           2           2
           2           2           2           2           2           2
           3           3           3           3           3           3
           3           3           3           3           3           3
Primitive exponents                        R   N=          59
  1.53300000E+04  2.29900000E+03  5.22400000E+02  1.47300000E+02  4.75500000E+01
  1.67600000E+01  6.20700000E+00  5.22400000E+02  1.47300000E+02  4.75500000E+01
  1.67600000E+01  6.20700000E+00  6.88200000E-01  1.75200000E+00  2.38400000E-01
  7.37600000E-02  2.28000000E-02  3.44600000E+01  7.74900000E+00  2.28000000E+00
  7.15600000E-01  2.14000000E-01  5.97400000E-02  1.67000000E-02  2.31400000E+00
  6.45000000E-01  2.14000000E-01  7.10000000E-02  1.42800000E+00  5.00000000E-01
  1.75000000E-01  3.38700000E+01  5.09500000E+00  1.15900000E+00  3.25800000E-01
  1.02700000E-01  2.52600000E-02  6.21000000E-03  1.40700000E+00  3.88000000E-01
  1.02000000E-01  2.68000000E-02  1.05700000E+00  2.47000000E-01  5.77000000E-02
  3.38700000E+01  5.09500000E+00  1.15900000E+00  3.25800000E-01  1.02700000E-01
  2.52600000E-02  6.21000000E-03  1.40700000E+00  3.88000000E-01  1.02000000E-01
  2.68000000E-02  1.05700000E+00  2.47000000E-01  5.77000000E-02
Contraction coefficients                   R   N=          59
  5.19808943E-04  4.02025621E-03  2.07128267E-02  8.10105536E-02  2.35962985E-01
  4.42653446E-01  3.57064423E-01 -4.42115008E-05 -1.22591041E-03 -1.05517725E-02
 -6.74452633E-02 -1.71198607E-01  1.07329856E+00  1.00000000E+00  1.00000000E+00
  1.00000000E+00  1.00000000E+00  4.11634896E-02  2.57762836E-01  8.02419274E-01
  1.00000000E+00  1.00000000E+00  1.00000000E+00  1.00000000E+00  1.00000000E+00
  1.00000000E+00  1.00000000E+00  1.00000000E+00  1.00000000E+00  1.00000000E+00
  1.00000000E+00  2.54948632E-02  1.90362766E-01  8.52162022E-01  1.00000000E+00
  1.00000000E+00  1.00000000E+00  1.00000000E+00  1.00000000E+00  1.00000000E+00
  1.00000000E+00  1.00000000E+00  1.00000000E+00  1.00000000E+00  1.00000000E+00
  2.54948632E-02  1.90362766E-01  8.52162022E-01  1.00000000E+00  1.00000000E+00
  1.00000000E+00  1.00000000E+00  1.00000000E+00  1.00000000E+00  1.00000000E+00
  1.00000000E+00  1.00000000E+00  1.00000000E+00  1.00000000E+00
Coordinates of each shell                  R   N=         126
  0.00000000E+00  0.00000000E+00  2.19030232E-01  0.00000000E+00  0.00000000E+00
  2.19030232E-01  0.00000000E+00  0.00000000E+00  2.19030232E-01  0.00000000E+00
  0.00000000E+00  2.19030232E-01  0.00000000E+00  0.00000000E+00  2.19030232E-01
  0.00000000E+00  0.00000000E+00  2.19030232E-01  0.00000000E+00  0.00000000E+00
  2.19030232E-01  0.00000000E+00  0.00000000E+00  2.19030232E-01  0.00000000E+00
  0.00000000E+00  2.19030232E-01  0.00000000E+00  0.00000000E+00  2.19030232E-01
  0.00000000E+00  0.00000000E+00  2.19030232E-01  0.00000000E+00  0.00000000E+00
  2.19030232E-01  0.00000000E+00  0.00000000E+00  2.19030232E-01  0.00000000E+00
  0.00000000E+00  2.19030232E-01  0.00000000E+00  0.00000000E+00  2.19030232E-01
  0.00000000E+00  0.00000000E+00  2.19030232E-01  0.00000000E+00  0.00000000E+00
  2.19030232E-01  0.00000000E+00  0.00000000E+00  2.19030232E-01  0.00000000E+00
  1.45230387E+00 -8.76120932E-01  0.00000000E+00  1.45230387E+00 -8.76120932E-01
  0.00000000E+00  1.45230387E+00 -8.76120932E-01  0.00000000E+00  1.45230387E+00
 -8.76120932E-01  0.00000000E+00  1.45230387E+00 -8.76120932E-01  0.00000000E+00
  1.45230387E+00 -8.76120932E-01  0.00000000E+00  1.45230387E+00 -8.76120932E-01
  0.00000000E+00  1.45230387E+00 -8.76120932E-01  0.00000000E+00  1.45230387E+00
 -8.76120932E-01  0.00000000E+00  1.45230387E+00 -8.76120932E-01  0.00000000E+00
  1.45230387E+00 -8.76120932E-01  0.00000000E+00  1.45230387E+00 -8.76120932E-01
  0.00000000E+00 -1.45230387E+00 -8.76120932E-01  0.00000000E+00 -1.45230387E+00
 -8.76120932E-01  0.00000000E+00 -1.45230387E+00 -8.76120932E-01  0.00000000E+00
 -1.45230387E+00 -8.76120932E-01  0.00000000E+00 -1.45230387E+00 -8.76120932E-01
  0.00000000E+00 -1.45230387E+00 -8.76120932E-01  0.00000000E+00 -1.45230387E+00
 -8.76120932E-01  0.00000000E+00 -1.45230387E+00 -8.76120932E-01  0.00000000E+00
 -1.45230387E+00 -8.76120932E-01  0.00000000E+00 -1.45230387E+00 -8.76120932E-01
  0.00000000E+00 -1.45230387E+00 -8.76120932E-01  0.00000000E+00 -1.45230387E+00
 -8.76120932E-01
Constraint Structure                       R   N=           9
  0.00000000E+00  0.00000000E+00  2.19030232E-01  0.00000000E+00  1.45230387E+00
 -8.76120932E-01  0.00000000E+00 -1.45230387E+00 -8.76120932E-01
Num ILSW                                   I              100
ILSW                                       I   N=         100
           0           0           0           0           2           0
           0           0           0           0           0          -1
           0           0           0           0           0           0
           0           0           0           0           0           0
           1           1           0           0           0           0
           0           0      100000           0          -1           0
           0           0           0           0           0           0
           0           0           0           1           1           0
           0           0           1           0           0           0
           0           0           4          41           0           0
           0           0           0           0           0           0
           0           0           0           3           0           0
           0           0           0           0           0           0
           0           0           0           0           0           0
           0           0           0           0           0           0
           0           0           0           0           0           0
           0           0           0           0
Num RLSW                                   I               41
RLSW                                       R   N=          41
  1.00000000E+00  1.00000000E+00  1.00000000E+00  1.00000000E+00  1.00000000E+00
  0.00000000E+00  0.00000000E+00  1.00000000E+00  0.00000000E+00  0.00000000E+00
  0.00000000E+00  0.00000000E+00  1.00000000E+00  0.00000000E+00  0.00000000E+00
  0.00000000E+00  0.00000000E+00  1.00000000E+00  0.00000000E+00  0.00000000E+00
  0.00000000E+00  0.00000000E+00  1.00000000E+00  0.00000000E+00  0.00000000E+00
  0.00000000E+00  0.00000000E+00  1.00000000E+00  0.00000000E+00  0.00000000E+00
  0.00000000E+00  0.00000000E+00  1.00000000E+00  0.00000000E+00  0.00000000E+00
  0.00000000E+00  0.00000000E+00  0.00000000E+00  1.00000000E+00  1.00000000E+00
  0.00000000E+00
MxBond                                     I                2
NBond                                      I   N=           3
           2           1           1
IBond                                      I   N=           6
           2           3           1           0           1           0
RBond                                      R   N=           6
  1.00000000E+00  1.00000000E+00  1.00000000E+00  0.00000000E+00  1.00000000E+00
  0.00000000E+00
Virial Ratio                               R      2.001644986435905E+00
SCF Energy                                 R     -7.606029951789451E+01
MP2 Energy                                 R     -7.632933991013182E+01
MP3 Energy                                 R     -7.633191181920755E+01
MP4D Energy                                R     -7.633664388814098E+01
MP4DQ Energy                               R     -7.633255665661015E+01
MP4SDQ Energy                              R     -7.633446180620697E+01
Cluster Energy                             R     -7.633397787039725E+01
Cluster Energy with triples                R     -7.634267960581769E+01
Total Energy                               R     -7.634267960581769E+01
Post-SCF wavefunction norm                 R      1.033865364803577E+00
RMS Density                                R      5.482853238086734E-11
External E-field                           R   N=          35
  0.00000000E+00  0.00000000E+00  0.00000000E+00  0.00000000E+00  0.00000000E+00
  0.00000000E+00  0.00000000E+00  0.00000000E+00  0.00000000E+00  0.00000000E+00
  0.00000000E+00  0.00000000E+00  0.00000000E+00  0.00000000E+00  0.00000000E+00
  0.00000000E+00  0.00000000E+00  0.00000000E+00  0.00000000E+00  0.00000000E+00
  0.00000000E+00  0.00000000E+00  0.00000000E+00  0.00000000E+00  0.00000000E+00
  0.00000000E+00  0.00000000E+00  0.00000000E+00  0.00000000E+00  0.00000000E+00
  0.00000000E+00  0.00000000E+00  0.00000000E+00  0.00000000E+00  0.00000000E+00
IOpCl                                      I                0
IROHF                                      I                0
Alpha Orbital Energies                     R   N=         126
 -2.05673709E+01 -1.34978719E+00 -7.17651277E-01 -5.81060787E-01 -5.09461689E-01
  6.83507384E-03  1.19566079E-02  3.01002004E-02  3.51853014E-02  4.17446229E-02
  4.40357424E-02  6.98697768E-02  7.24128483E-02  7.47635620E-02  8.71386753E-02
  8.80404314E-02  1.00705772E-01  1.07019897E-01  1.14997488E-01  1.84402812E-01
  1.89394060E-01  1.89783773E-01  2.00181212E-01  2.10396838E-01  2.17695438E-01
  2.21260059E-01  2.30128164E-01  2.33647260E-01  2.47558066E-01  2.47741647E-01
  2.49427728E-01  2.66019290E-01  2.81337408E-01  3.14430776E-01  3.17235129E-01
  3.43860846E-01  3.48001608E-01  3.66714886E-01  4.09293427E-01  4.40867892E-01
  4.74705026E-01  4.90378115E-01  5.03033547E-01  5.21369777E-01  5.79160991E-01
  6.14272496E-01  7.17490349E-01  7.44177070E-01  7.52395565E-01  8.23234784E-01
  8.35417094E-01  8.55104110E-01  8.56535138E-01  8.66562856E-01  8.66757188E-01
  8.80528372E-01  9.48101779E-01  9.93512620E-01  1.06179170E+00  1.09224946E+00
  1.09280609E+00  1.12128993E+00  1.14459070E+00  1.16020870E+00  1.20958937E+00
  1.23274395E+00  1.23966081E+00  1.26083165E+00  1.26625208E+00  1.28704525E+00
  1.33011268E+00  1.39945277E+00  1.47585170E+00  1.78848043E+00  1.79540235E+00
  1.82422821E+00  1.92591514E+00  1.93259873E+00  2.18320427E+00  2.23506132E+00
  2.35899351E+00  2.41091481E+00  2.47471213E+00  2.49140625E+00  2.53553315E+00
  2.54937941E+00  2.81138960E+00  2.82021665E+00  2.84327268E+00  2.84654554E+00
  2.95366411E+00  2.98260181E+00  4.01321226E+00  4.01667733E+00  4.08433610E+00
  4.18491507E+00  4.28490637E+00  4.31566130E+00  4.56191408E+00  4.65037206E+00
  4.66061256E+00  4.67730264E+00  4.71286279E+00  4.81613029E+00  4.95181532E+00
  5.17761225E+00  5.19241312E+00  5.32571511E+00  5.39364764E+00  5.52381402E+00
  5.80387144E+00  6.33120886E+00  6.63228478E+00  6.73797572E+00  6.94131942E+00
  7.19125470E+00  7.31348254E+00  7.34924033E+00  7.36324238E+00  7.37976267E+00
  7.38896455E+00  7.69619847E+00  7.93225493E+00  7.97225331E+00  8.90202384E+00
  1.58321412E+01
Alpha MO coefficients                      R   N=       15876
  9.76699637E-01 -9.01715615E-03  4.36239034E-02  8.41821619E-04  1.74223139E-03
  9.08343651E-04 -3.86836123E-16  5.36096311E-15 -1.85484696E-03  1.67444144E-16
 -5.38981433E-14  1.57718017E-03  6.07151344E-15 -4.16854832E-13  4.51091723E-04
  6.60530394E-15  2.08764506E-14  3.54464129E-04  5.25417057E-16 -1.07307051E-13
  6.63219575E-05  1.14482153E-05 -1.79402114E-16 -3.39890287E-16 -7.07931690E-05
 -3.59099363E-16 -1.00444129E-04 -7.91248337E-16  3.96746065E-14  5.53739308E-04
  4.56241073E-16 -2.48582757E-04 -5.30136041E-16  1.61824725E-13 -2.27852110E-04
 -3.11493522E-16 -2.82890119E-04 -1.65915397E-15  9.16568878E-15 -3.02116465E-04
  1.74096043E-15  1.91004039E-05  8.72178398E-17 -2.00069464E-15  1.39096026E-05
  3.03385862E-16 -1.47990657E-17  2.29349221E-16 -8.23671793E-05 -1.20991459E-16
 -6.71391456E-15 -2.12520947E-04 -1.37632516E-16 -7.83761243E-16  9.69830701E-15
  6.55851751E-05 -3.25558509E-16 -3.45030943E-14  5.74765489E-05  7.14596116E-17
 -8.38020392E-16 -7.70742681E-15  4.98066587E-04  1.25153599E-03 -1.02663142E-03
 -5.34073240E-04 -1.17950784E-05  1.56771350E-16 -1.56325629E-04  1.18881678E-04
 -1.72582597E-15 -8.29067387E-04  4.53390301E-04 -5.60448037E-15 -3.43658520E-04
 -5.45448424E-04 -8.81266446E-16  1.18227593E-05 -1.86188004E-04 -3.66008135E-05
 -1.07137009E-16  1.20200882E-04  4.23956356E-05  1.41888565E-16 -6.70385614E-05
 -1.44396317E-15 -3.27982602E-04 -2.79158176E-04  7.34509098E-16 -8.67098433E-05
 -8.95935875E-16  1.03327061E-04  1.44657902E-05  1.30948819E-16  4.98066587E-04
  1.25153599E-03 -1.02663142E-03 -5.34073246E-04 -1.17950785E-05 -3.42104952E-16
  1.56325629E-04  1.18881678E-04 -1.49996578E-15  8.29067387E-04  4.53390301E-04
 -3.12849925E-15  3.43658519E-04 -5.45448424E-04 -1.10110660E-15 -1.18227607E-05
 -1.86188004E-04 -3.66008135E-05 -6.09603927E-16 -1.20200882E-04  4.23956356E-05
 -8.64622110E-16 -6.70385614E-05 -9.97274168E-16  3.27982602E-04 -2.79158176E-04
  2.87148969E-17 -8.67098432E-05  3.02707033E-16 -1.03327061E-04  1.44657903E-05
 -1.09858830E-15 -2.01533693E-01  4.88574696E-01  1.33134405E-01  2.98516159E-01
  6.38027884E-02  5.91508847E-02 -1.35941188E-16 -4.30217929E-15 -4.32633023E-02
 -4.40371028E-19 -2.77410550E-14 -6.18605172E-02  4.30144357E-15  8.36986053E-13
 -9.45982451E-03 -4.00137322E-15  3.72901365E-12  3.95356665E-03 -4.91942151E-15
 -6.87200331E-13 -1.18765716E-03  7.67713441E-04  1.04111081E-16  2.01595055E-15
 -3.69359386E-03  7.48936178E-17  3.09471846E-03 -5.93898490E-16 -4.33299743E-14
 -8.27975425E-03  3.91138782E-16  8.51138648E-05 -1.63943357E-15 -7.52162327E-13
  7.34400971E-03  2.43303372E-15 -1.80106662E-03  5.49225120E-16 -5.73236673E-13
 -5.83370190E-04  4.32976783E-15  9.90892213E-04  4.18208187E-18  5.92701942E-15
  2.66437035E-03  2.74426606E-17  1.76137292E-17 -4.35593372E-15 -8.04213849E-04
 -7.15931181E-17  4.10362283E-14 -1.16600593E-04 -4.30619773E-16 -7.29876616E-16
 -2.50052162E-14 -6.50441289E-04  3.24917435E-16  4.52159921E-14 -1.68124632E-03
 -8.09726684E-16  2.42575352E-17 -2.49676436E-13  8.76132040E-02  8.30793485E-02
 -2.53557853E-02 -3.61506570E-02 -5.94166252E-04  8.97165542E-17 -1.08264690E-02
  7.43033930E-03 -3.58350726E-15 -8.10528252E-03  5.42806834E-03 -6.13888751E-15
  1.25917400E-02 -1.28260535E-02  4.36299466E-15  6.85210965E-03 -6.11471817E-03
  7.49017968E-05 -3.96279159E-16 -2.15122692E-03 -1.29504721E-03  3.40346191E-16
 -3.28494744E-04 -9.99327426E-16  2.26873238E-03  1.09988093E-03  2.04701326E-15
 -2.24510738E-04 -9.21554891E-16  2.53264723E-03  2.38486778E-03 -1.26419334E-15
  8.76132040E-02  8.30793485E-02 -2.53557853E-02 -3.61506571E-02 -5.94166254E-04
  1.28868455E-16  1.08264690E-02  7.43033930E-03 -2.64826193E-16  8.10528252E-03
  5.42806834E-03  5.13226407E-15 -1.25917400E-02 -1.28260535E-02  3.84705186E-15
 -6.85210968E-03 -6.11471818E-03  7.49017968E-05  3.59088488E-17  2.15122692E-03
 -1.29504721E-03 -1.43635835E-17 -3.28494743E-04  1.63045071E-17 -2.26873238E-03
  1.09988093E-03  3.24676119E-17 -2.24510737E-04  1.87076100E-15 -2.53264723E-03
  2.38486779E-03 -2.03643101E-16 -1.06407559E-14 -6.73881962E-14 -1.66834972E-14
  1.41850743E-12  8.29246905E-12  1.63742021E-11 -1.60454235E-15  2.83487151E-01
  1.48036584E-15 -2.43362732E-15  3.39170834E-01 -3.00346170E-14  1.80955538E-14
  1.36052736E-01 -6.28676112E-13  3.11239633E-14 -1.43781925E-02 -1.30565571E-12
  8.37876553E-15  4.06712803E-03 -8.88522126E-13  5.25786210E-16 -2.34968842E-18
 -1.26353676E-02  9.94621702E-16  7.19992500E-17 -1.10663527E-14 -3.18904834E-16
 -2.25118991E-02 -5.09837101E-14  1.46557752E-16 -2.51004438E-13 -8.15484520E-15
  1.66087871E-02 -4.55785246E-13 -3.04309365E-16 -3.36120179E-13 -3.40897277E-15
  5.26851643E-03 -7.02835516E-13  3.33811192E-15  5.76958617E-16 -8.83199897E-17
 -2.43062820E-04  4.63366108E-15  3.29851749E-17 -3.36086748E-17 -2.77233418E-03
  2.95900059E-14  5.51480876E-16  1.43188638E-03  2.57719137E-14 -8.37326549E-19
 -1.04428990E-15 -1.55235581E-03  1.36853319E-13  1.42680589E-15 -4.21956306E-03
  1.48136095E-13 -1.94432865E-16 -7.94988518E-16  3.26859639E-03  1.39894335E-01
  2.44290573E-01  5.03307643E-03 -1.05719896E-01 -3.45996406E-03  4.59031148E-16
 -1.00423803E-02  1.26399662E-02 -6.14092070E-15 -1.96682948E-02  2.65185954E-02
 -1.85035276E-14  3.56143282E-02 -1.43972500E-02 -8.95903425E-15  2.49236629E-02
 -7.98586810E-03  1.71762456E-03 -2.96003834E-16 -6.19885540E-03 -3.22808392E-03
  3.69117411E-16  2.79742767E-03 -1.36219748E-15 -4.16740876E-04  3.45597266E-03
  4.11409679E-15  1.60748604E-03 -4.53679547E-15  6.45873685E-03  5.86776784E-03
  1.45695110E-15 -1.39894335E-01 -2.44290573E-01 -5.03307644E-03  1.05719896E-01
  3.45996405E-03  1.28743827E-16 -1.00423803E-02 -1.26399662E-02 -5.26238790E-15
 -1.96682948E-02 -2.65185954E-02 -1.33827387E-14  3.56143282E-02  1.43972500E-02
 -9.02052045E-15  2.49236629E-02  7.98586810E-03 -1.71762456E-03 -1.79055106E-16
 -6.19885540E-03  3.22808392E-03 -1.65542255E-16 -2.79742767E-03 -1.44839292E-15
 -4.16740876E-04 -3.45597266E-03 -3.66075824E-15 -1.60748604E-03 -1.45884426E-15
  6.45873685E-03 -5.86776784E-03 -3.89647913E-15 -6.38189467E-02  1.71564285E-01
  5.07793922E-02  3.57234799E-01  8.96816798E-02 -1.22365232E-02 -1.37305292E-15
 -1.36519159E-14  3.13256019E-01 -1.74893063E-15  1.65572440E-13  3.82298299E-01
 -7.25379281E-15  3.88113734E-12  1.93872177E-01 -1.29777972E-14  3.89132577E-12
  1.05607960E-02 -2.38769329E-15  2.25011952E-12  1.53750057E-03 -5.66583834E-03
 -2.64052297E-16  6.86300485E-15  3.71213835E-03 -4.69579820E-17 -1.60375815E-02
  6.81698201E-16 -2.03390658E-13 -5.47537720E-04  1.08566278E-16 -4.79064006E-03
  1.83868312E-15 -1.62749296E-12 -2.18590136E-02  1.60855186E-15 -2.28333474E-03
  2.32703722E-15 -9.44928215E-13  1.20903765E-03  1.49955406E-15  5.64189186E-04
 -9.92439447E-17  1.05528457E-14 -2.60111429E-03  7.10805279E-17 -7.24743155E-19
 -2.21993710E-15  2.40557429E-03 -1.29476152E-16  2.65635591E-14  1.41175268E-03
 -1.97280466E-16  4.70957626E-16 -8.46735373E-14  3.46904067E-03 -4.20199212E-17
  2.28480241E-13  6.47601168E-03 -3.70240451E-16  2.59493601E-16 -2.00661320E-13
 -8.39522049E-02 -2.07624199E-01 -6.75817539E-02  5.33187018E-03  3.34590121E-04
  9.91001069E-18  1.00450703E-02  1.27378634E-03  3.99708851E-16  3.58920192E-02
 -4.83585530E-03  3.25338372E-15 -1.65812713E-03  1.27352438E-02  2.26557881E-15
 -2.01485611E-03 -4.51137759E-04  1.89638517E-03 -3.64225078E-18  2.23982617E-03
  3.35202344E-03 -7.35141787E-17  2.57081975E-03  3.92033256E-16 -2.28372346E-03
  2.57984784E-03 -7.81875575E-16  6.74499656E-04  4.95925348E-17 -1.60255867E-03
 -2.49562260E-03 -8.62319709E-16 -8.39522049E-02 -2.07624199E-01 -6.75817539E-02
  5.33187025E-03  3.34590123E-04 -1.30237070E-16 -1.00450703E-02  1.27378634E-03
  2.28633924E-15 -3.58920192E-02 -4.83585529E-03  9.45338112E-15  1.65812713E-03
  1.27352438E-02  4.50521697E-15  2.01485612E-03 -4.51137757E-04  1.89638517E-03
  1.89634337E-17 -2.23982617E-03  3.35202344E-03  7.83470511E-17  2.57081975E-03
  1.27932542E-15  2.28372346E-03  2.57984784E-03  1.39939135E-15  6.74499656E-04
  1.35554668E-15  1.60255867E-03 -2.49562260E-03  1.72544716E-15 -9.24029879E-16
 -1.89567323E-15 -5.06083645E-16  7.47750801E-14  1.54327148E-13  2.42196820E-13
  3.54138511E-01  5.58252666E-16  1.39411440E-15  4.49550858E-01  5.00918049E-15
 -3.97064387E-15  3.39861506E-01  7.25031493E-14 -4.28563993E-14  6.88579020E-02
  1.47738037E-13 -5.31279995E-14  7.96696727E-03  5.18448310E-15 -1.43346904E-14
  3.93398935E-17 -5.65054332E-03  2.06967968E-16  3.73039238E-16  9.84958407E-16
 -1.55165253E-15 -1.45274214E-02 -5.30376329E-15 -4.83710076E-15 -2.19349082E-15
 -6.02730313E-16 -8.83235108E-03 -2.78049016E-14 -2.00051743E-14  1.92378135E-14
  1.95024291E-15 -8.77560957E-03 -3.35245505E-14 -1.43745801E-14  1.04048482E-13
  1.61813122E-18  1.31345823E-03  3.44883380E-16  2.39224413E-16 -1.86429666E-16
 -3.66693768E-03 -6.17899024E-17  1.46454684E-15  7.11343053E-04 -3.52992767E-16
  2.44129051E-15  3.70090225E-15 -1.38728117E-03 -2.73959425E-15  2.24097702E-15
  7.16240475E-04  3.67708433E-15  5.73836020E-15 -2.03264496E-14 -3.91847190E-03
 -5.82795203E-15  1.87751569E-15 -1.11552230E-13  1.52354781E-14  1.54519160E-12
 -1.55054193E-14  1.08617958E-02  2.26429752E-15 -8.49634839E-16  2.63826840E-02
  1.05400085E-14 -1.88808081E-14  1.54550465E-03 -1.28922093E-13  4.01883779E-15
 -1.06118571E-02 -4.16785476E-13 -1.15284801E-14 -5.86339693E-16  2.82147943E-03
  1.63460286E-15  9.80036251E-16 -3.67013775E-03 -8.38912997E-15  2.41367165E-03
 -3.34399953E-15 -1.23264119E-14 -5.00344698E-03 -1.95643588E-14 -1.14277346E-03
 -1.65400031E-14 -3.94175829E-14  2.44053712E-03 -1.41229886E-15  2.65872745E-15
 -1.76689239E-13 -1.79451442E-12  3.04390166E-15  1.08617958E-02  7.90675654E-16
 -4.12383301E-19  2.63826840E-02 -9.84186794E-15 -1.22842511E-15  1.54550465E-03
 -1.09021976E-13 -6.09225806E-15 -1.06118571E-02 -4.43814496E-13 -3.92834366E-15
 -9.79657586E-17  2.82147943E-03  3.54667916E-17  1.03534688E-16  3.67013775E-03
  4.49311713E-15  2.41367165E-03 -2.57460574E-15  7.38977129E-15  5.00344698E-03
  1.52369950E-14 -1.14277346E-03  3.00595505E-15  3.67975244E-14 -2.44053712E-03
 -8.99033008E-03  2.33350421E-02  7.00456011E-03  1.30971969E-01  7.36586773E-01
  4.31386901E+00 -1.69442722E-16  1.37860070E-13 -1.30913582E-02  4.04311093E-16
 -2.03911586E-12 -2.09488111E-02 -1.44530447E-15 -2.77681083E-11 -3.21771734E-02
 -1.97132065E-15  1.09149129E-11  6.93141144E-03 -1.24872810E-15 -2.84236868E-11
  4.80870396E-02  2.25629291E-04  1.66105787E-16 -6.48892295E-14 -2.77694859E-05
 -4.12135405E-18  6.69316948E-04 -1.83199917E-16  2.00276438E-12 -1.47434365E-03
 -1.31936340E-16 -1.34045454E-03  7.27014884E-16  1.18047472E-11  3.08176551E-03
 -5.23866621E-16 -2.02768043E-02  1.02028086E-16 -6.63824231E-13 -2.39972841E-02
 -1.03741184E-15  1.43913484E-05  2.60415013E-16 -5.21653899E-14  3.93949235E-04
 -5.32592554E-17 -1.50821973E-16  2.58225719E-14  8.62815806E-05 -1.25516672E-16
 -6.32857993E-13 -7.28926279E-04 -1.15298153E-16 -1.31361696E-17  4.95498845E-13
 -1.70002620E-03 -1.16210270E-16 -2.56460816E-12 -2.03429180E-03  3.76619438E-16
  1.91423174E-16 -3.74021916E-13 -8.76509594E-04 -6.00287099E-03 -2.16948108E-01
 -2.02693265E+00 -7.14603880E-01 -3.58623991E-16 -1.54412233E-03  8.07608190E-04
  1.04935533E-15  5.47504003E-03 -3.98369150E-03  2.52746682E-15  5.48230870E-02
 -7.37291572E-02  7.13789933E-16  3.09677535E-01 -3.42838127E-01 -1.76529933E-04
  4.71936110E-18  2.16690017E-04  1.51975661E-04 -1.62618307E-16 -6.85662017E-04
  2.10118225E-16  7.31029599E-03  3.33774878E-03 -5.39527978E-16 -1.74367841E-02
  5.13157299E-16  2.94878543E-02  3.69837781E-02 -9.69968271E-17 -8.76509594E-04
 -6.00287103E-03 -2.16948108E-01 -2.02693266E+00 -7.14603880E-01  2.41311243E-17
  1.54412233E-03  8.07608189E-04  1.15323349E-16 -5.47504004E-03 -3.98369151E-03
 -6.35746972E-16 -5.48230871E-02 -7.37291572E-02  9.73799058E-16 -3.09677535E-01
 -3.42838127E-01 -1.76529933E-04 -1.78123736E-16 -2.16690018E-04  1.51975661E-04
  1.22242461E-16 -6.85662016E-04  6.28017461E-17 -7.31029599E-03  3.33774878E-03
 -1.89913003E-16 -1.74367841E-02 -5.30099639E-17 -2.94878543E-02  3.69837781E-02
  3.10656567E-16  1.34237387E-13 -4.19255313E-14  9.64277272E-14  9.41854780E-12
  1.18573328E-10  9.63439969E-11  2.93203233E-18 -6.25044984E-03  3.32976567E-14
 -9.85105299E-17 -1.41999092E-02  7.13650991E-13 -2.84813331E-15 -1.47631535E-01
  4.68851508E-12 -2.93232120E-15 -5.44683118E-01 -6.11290746E-12 -6.52118668E-16
 -1.50132932E+00  3.28345827E-12 -2.17079949E-14 -4.16759443E-17 -1.71323636E-05
 -2.91678075E-14 -3.09499067E-18  1.12259544E-13  8.08566329E-17  6.86096299E-03
  5.28813554E-13  6.98612476E-17 -3.40377996E-12  2.02066705E-15  3.79623694E-02
  1.95815241E-12 -9.18623698E-16 -6.00577056E-12  8.03333742E-16  4.93029438E-02
 -1.03738610E-11 -2.97890210E-15 -4.13148252E-14 -2.78928965E-17 -3.24649660E-04
 -3.13501941E-14  3.63899458E-17  1.69536802E-17  2.00441969E-04 -2.54704627E-13
 -7.79001481E-17  1.31169137E-04 -6.95261525E-13 -5.18447079E-17  2.04295121E-16
  1.97024634E-03  5.24142288E-13 -1.42667878E-15  8.22064796E-05 -8.42554812E-13
  6.70153981E-16 -1.54305626E-16  9.51565206E-03 -1.71488718E-03  7.22223466E-02
  2.75044358E-01  3.42964542E+00  6.44937678E+00 -4.81297774E-17 -4.41036623E-04
 -3.50916711E-04  1.04993861E-15 -1.10096361E-02  1.81425767E-02  5.88613350E-15
  5.67452590E-02  7.72429631E-02 -3.67207748E-16 -1.81900287E-01  4.23525478E-01
  4.19479600E-05  2.15876798E-17 -1.07819146E-03 -8.30097503E-04  1.40949721E-17
  7.73359027E-03 -8.03797857E-17 -2.47467926E-03  6.19501390E-03 -1.36743233E-15
  2.97888208E-02  8.54947493E-16 -1.14023426E-02  2.09972000E-02  2.34266139E-16
  1.71488718E-03 -7.22223466E-02 -2.75044358E-01 -3.42964542E+00 -6.44937678E+00
 -2.88176480E-17 -4.41036622E-04  3.50916712E-04  1.06642931E-15 -1.10096361E-02
 -1.81425767E-02 -2.18821021E-15  5.67452589E-02 -7.72429631E-02  1.63336941E-15
 -1.81900287E-01 -4.23525478E-01 -4.19479599E-05  1.10602694E-16 -1.07819146E-03
  8.30097503E-04  8.13610620E-17 -7.73359027E-03 -5.05933933E-16 -2.47467927E-03
 -6.19501390E-03  3.74401924E-16 -2.97888208E-02 -7.54386955E-16 -1.14023426E-02
 -2.09972000E-02  8.95210617E-16  7.31065567E-03 -2.44220122E-02 -9.79481399E-03
  4.95741539E-01  2.72261434E+00  1.75088475E+01 -4.27215383E-16 -1.07155009E-13