finite field calculation (-1, 0, 0)                                     
SP        RBLYP                                                       6-31+G(d)           
Number of atoms                            I                3
Info1-9                                    I   N=           9
          28          28           0           0           0         111
           1          18         202
Charge                                     I                0
Multiplicity                               I                1
Number of electrons                        I               10
Number of alpha electrons                  I                5
Number of beta electrons                   I                5
Number of basis functions                  I               23
Number of independent functions            I               23
Number of point charges in /Mol/           I                0
Number of translation vectors              I                0
Atomic numbers                             I   N=           3
           8           1           1
Nuclear charges                            R   N=           3
  8.00000000E+00  1.00000000E+00  1.00000000E+00
Current cartesian coordinates              R   N=           9
  0.00000000E+00  0.00000000E+00  2.19030238E-01  0.00000000E+00  1.45230387E+00
 -8.76120934E-01  0.00000000E+00 -1.45230387E+00 -8.76120934E-01
Force Field                                I                0
Int Atom Types                             I   N=           3
           0           0           0
MM charges                                 R   N=           3
  0.00000000E+00  0.00000000E+00  0.00000000E+00
Integer atomic weights                     I   N=           3
          16           1           1
Real atomic weights                        R   N=           3
  1.59949146E+01  1.00782504E+00  1.00782504E+00
Atom fragment info                         I   N=           3
           0           0           0
Atom residue num                           I   N=           3
           0           0           0
Nuclear spins                              I   N=           3
           0           1           1
Nuclear ZEff                               R   N=           3
 -5.60000000E+00 -1.00000000E+00 -1.00000000E+00
Nuclear ZNuc                               R   N=           3
  8.00000000E+00  1.00000000E+00  1.00000000E+00
Nuclear QMom                               R   N=           3
  0.00000000E+00  0.00000000E+00  0.00000000E+00
Nuclear GFac                               R   N=           3
  0.00000000E+00  2.79284600E+00  2.79284600E+00
MicOpt                                     I   N=           3
          -1          -1          -1
Number of contracted shells                I                9
Number of primitive shells                 I               20
Pure/Cartesian d shells                    I                1
Pure/Cartesian f shells                    I                0
Highest angular momentum                   I                2
Largest degree of contraction              I                6
Shell types                                I   N=           9
           0          -1          -1          -1           2           0
           0           0           0
Number of primitives per shell             I   N=           9
           6           3           1           1           1           3
           1           3           1
Shell to atom map                          I   N=           9
           1           1           1           1           1           2
           2           3           3
Primitive exponents                        R   N=          20
  5.48467166E+03  8.25234946E+02  1.88046958E+02  5.29645000E+01  1.68975704E+01
  5.79963534E+00  1.55396162E+01  3.59993359E+00  1.01376175E+00  2.70005823E-01
  8.45000000E-02  8.00000000E-01  1.87311370E+01  2.82539436E+00  6.40121692E-01
  1.61277759E-01  1.87311370E+01  2.82539436E+00  6.40121692E-01  1.61277759E-01
Contraction coefficients                   R   N=          20
  1.83107443E-03  1.39501722E-02  6.84450781E-02  2.32714336E-01  4.70192898E-01
  3.58520853E-01 -1.10777550E-01 -1.48026263E-01  1.13076702E+00  1.00000000E+00
  1.00000000E+00  1.00000000E+00  3.34946043E-02  2.34726953E-01  8.13757326E-01
  1.00000000E+00  3.34946043E-02  2.34726953E-01  8.13757326E-01  1.00000000E+00
P(S=P) Contraction coefficients            R   N=          20
  0.00000000E+00  0.00000000E+00  0.00000000E+00  0.00000000E+00  0.00000000E+00
  0.00000000E+00  7.08742682E-02  3.39752839E-01  7.27158577E-01  1.00000000E+00
  1.00000000E+00  0.00000000E+00  0.00000000E+00  0.00000000E+00  0.00000000E+00
  0.00000000E+00  0.00000000E+00  0.00000000E+00  0.00000000E+00  0.00000000E+00
Coordinates of each shell                  R   N=          27
  0.00000000E+00  0.00000000E+00  2.19030238E-01  0.00000000E+00  0.00000000E+00
  2.19030238E-01  0.00000000E+00  0.00000000E+00  2.19030238E-01  0.00000000E+00
  0.00000000E+00  2.19030238E-01  0.00000000E+00  0.00000000E+00  2.19030238E-01
  0.00000000E+00  1.45230387E+00 -8.76120934E-01  0.00000000E+00  1.45230387E+00
 -8.76120934E-01  0.00000000E+00 -1.45230387E+00 -8.76120934E-01  0.00000000E+00
 -1.45230387E+00 -8.76120934E-01
Constraint Structure                       R   N=           9
  0.00000000E+00  0.00000000E+00  2.19030238E-01  0.00000000E+00  1.45230387E+00
 -8.76120934E-01  0.00000000E+00 -1.45230387E+00 -8.76120934E-01
Num ILSW                                   I              100
ILSW                                       I   N=         100
           0           1           0           0           2           0
           0           0           0           0         402          -1
           0           0           0           0           0           0
           0           0           0           0           0           0
           1           1           0           0           0           0
           0           0      100000           0          -1           0
           0           0           0           0           0           0
           0           0           0           1           0           0
           0           0           1           0           0           0
           0           0           4          41           0           0
           0           0           0           0           0           0
           0           0           0           3           0           0
           0           0           0           0           0           0
           0           0           0           0           0           0
           0           0           0           0           0           0
           0           0           0           0           0           0
           0           0           0           0
Num RLSW                                   I               41
RLSW                                       R   N=          41
  1.00000000E+00  1.00000000E+00  1.00000000E+00  1.00000000E+00  0.00000000E+00
  0.00000000E+00  0.00000000E+00  1.00000000E+00  0.00000000E+00  0.00000000E+00
  0.00000000E+00  0.00000000E+00  1.00000000E+00  0.00000000E+00  0.00000000E+00
  0.00000000E+00  0.00000000E+00  1.00000000E+00  0.00000000E+00  0.00000000E+00
  0.00000000E+00  0.00000000E+00  1.00000000E+00  0.00000000E+00  0.00000000E+00
  0.00000000E+00  0.00000000E+00  1.00000000E+00  0.00000000E+00  0.00000000E+00
  0.00000000E+00  0.00000000E+00  1.00000000E+00  0.00000000E+00  0.00000000E+00
  0.00000000E+00  0.00000000E+00  0.00000000E+00  1.00000000E+00  1.00000000E+00
  0.00000000E+00
MxBond                                     I                2
NBond                                      I   N=           3
           2           1           1
IBond                                      I   N=           6
           2           3           1           0           1           0
RBond                                      R   N=           6
  1.00000000E+00  1.00000000E+00  1.00000000E+00  0.00000000E+00  1.00000000E+00
  0.00000000E+00
Virial Ratio                               R      2.008705410791416E+00
SCF Energy                                 R     -7.640460411713036E+01
Total Energy                               R     -7.640460411713036E+01
RMS Density                                R      8.190499314294445E-12
External E-field                           R   N=          35
  0.00000000E+00 -4.00000000E-04  0.00000000E+00  0.00000000E+00  0.00000000E+00
  0.00000000E+00  0.00000000E+00  0.00000000E+00  0.00000000E+00  0.00000000E+00
  0.00000000E+00  0.00000000E+00  0.00000000E+00  0.00000000E+00  0.00000000E+00
  0.00000000E+00  0.00000000E+00  0.00000000E+00  0.00000000E+00  0.00000000E+00
  0.00000000E+00  0.00000000E+00  0.00000000E+00  0.00000000E+00  0.00000000E+00
  0.00000000E+00  0.00000000E+00  0.00000000E+00  0.00000000E+00  0.00000000E+00
  0.00000000E+00  0.00000000E+00  0.00000000E+00  0.00000000E+00  0.00000000E+00
IOpCl                                      I                0
IROHF                                      I                0
Alpha Orbital Energies                     R   N=          23
 -1.88172120E+01 -9.29322785E-01 -4.88605750E-01 -3.34278125E-01 -2.59391907E-01
  2.92848576E-03  9.08480010E-02  1.37890265E-01  1.38565073E-01  1.82429342E-01
  2.15237408E-01  8.94165703E-01  9.77019692E-01  1.05491734E+00  1.05617768E+00
  1.08810661E+00  1.19603423E+00  1.65224151E+00  1.65896959E+00  1.69782944E+00
  2.20865109E+00  2.57234826E+00  3.58549160E+00
Alpha MO coefficients                      R   N=         529
  9.92444228E-01  2.69478308E-02 -2.14023441E-06  1.02485043E-13 -1.17294467E-03
  1.25059718E-02  1.07446998E-06 -5.14806055E-14  6.33055031E-04 -1.14019796E-03
 -4.38050137E-07  9.89595811E-15 -7.24368580E-04 -8.70033329E-03 -8.74651303E-03
 -8.72339917E-03  1.27529915E-16  8.96497947E-09  6.95253138E-16  4.04483586E-04
 -9.55694272E-04  4.04483586E-04 -9.55694272E-04 -2.09823393E-01  4.73470364E-01
 -1.39269707E-04  6.69981463E-12 -1.35635789E-01  4.38453886E-01 -1.52672296E-04
  3.59580517E-12 -6.83827108E-02  5.74811664E-02 -5.38384268E-05  4.98642784E-13
 -2.00198566E-02 -1.25188164E-02  1.85597112E-02  1.42753264E-02 -5.98384101E-16
  2.22676263E-05 -6.21932374E-13  1.45081647E-01 -3.30119492E-02  1.45081647E-01
 -3.30119492E-02  1.81261055E-12 -4.45114785E-12  4.22533784E-15  5.27388532E-01
  5.02201600E-12 -1.58836091E-12  2.00034342E-15  2.55343521E-01  1.99106104E-12
  2.86746656E-12  8.77506340E-16  2.50279847E-02 -7.74167513E-13 -4.90021434E-13
  8.95264116E-13 -1.05191099E-12 -6.56394555E-05 -7.37427114E-16 -3.80296006E-02
  2.43354700E-01  1.15389803E-01 -2.43354700E-01 -1.15389803E-01 -8.44704536E-02
  1.89823768E-01 -4.76646097E-04 -1.98091075E-12  5.61220338E-01  3.31939822E-01
 -3.47529844E-04 -3.05556902E-13  3.26687176E-01  3.54621998E-02 -7.55271511E-05
  7.30115820E-13  9.07421386E-02  7.27352107E-03  1.18724842E-02 -4.21281792E-02
 -4.33198314E-16 -4.47616783E-05  1.25694395E-12 -1.43203812E-01 -9.10542420E-02
 -1.43203812E-01 -9.10542420E-02 -1.64013982E-04  4.63728626E-04  6.44779385E-01
 -2.52220575E-15  3.23192719E-04  5.24815023E-04  4.24676421E-01 -2.09494169E-15
  4.15548321E-04 -2.09682047E-03  1.38518193E-01 -1.65445803E-15  6.11210882E-04
 -6.52016367E-05  6.70230801E-05  2.80165690E-05  1.20425805E-12 -3.43263319E-02
  1.48001216E-15 -3.24645328E-05  8.04716931E-04 -3.24645328E-05  8.04716931E-04
  9.61288577E-02 -1.30041473E-01  1.72981453E-03 -8.72123436E-12  2.47262462E-01
 -1.06123811E+00  2.53209549E-03 -1.14246626E-11  2.63308686E-01  1.17697250E+00
 -5.64087427E-03  8.35720665E-12 -3.83342546E-01  5.45821475E-02  4.30481737E-02
  3.21958055E-02  4.95695029E-15 -7.89908055E-05  1.02902909E-12  1.00106293E-01
  1.50813454E-01  1.00106293E-01  1.50813454E-01  8.54905456E-14  9.91839892E-13
 -1.34163221E-13 -3.79686776E-01 -4.92513300E-12 -9.99239462E-12 -2.16068321E-13
 -6.09332403E-01  8.80277726E-13 -8.22473792E-11  5.34034480E-13  7.94657225E-01
  5.65992897E-11  7.52597219E-13 -4.06838714E-13  9.91381992E-13  1.56328478E-05
  4.79863713E-15  2.56061941E-02  8.59942626E-02  4.79656685E-01 -8.59942626E-02
 -4.79656685E-01 -1.84790589E-02  1.78535972E-02 -2.73037146E-01 -1.96351477E-12
  7.00025921E-02  2.14845536E-01 -4.24082638E-01 -3.94832456E-12  1.06265450E-01
 -5.85158213E-02  1.12388386E+00  6.96599755E-12 -4.20249581E-01 -1.02849227E-02
 -1.40764371E-02 -1.52289261E-02 -6.55609342E-13  8.36408521E-03  3.97089179E-13
 -7.96505963E-03 -1.19196594E-01 -7.96505963E-03 -1.19196594E-01  5.56201287E-02
 -5.54435040E-02 -9.50892124E-02  5.70968324E-12 -1.91010802E-01 -6.52379944E-01
 -1.47735989E-01  1.11556496E-11 -2.83647958E-01  8.72994625E-02  3.91735775E-01
 -2.50868862E-11  1.23290704E+00  3.03320261E-02  4.17263389E-02  4.37551415E-02
 -2.28685420E-13  2.91280188E-03 -1.19156030E-12  2.88101899E-02  4.14050975E-01
  2.88101899E-02  4.14050975E-01  3.49955608E-12 -2.65545299E-12  4.83795348E-13
 -2.19063606E-01  2.37647931E-11 -7.04038312E-11  7.01139251E-13 -4.82573082E-01
  5.98272324E-11 -3.28887583E-10 -1.99801765E-12 -1.61267203E+00  1.03904119E-10
  1.14991048E-12  2.51465888E-12 -3.24792212E-15  2.44906981E-05 -1.47878136E-14
 -2.35445434E-02  1.75311147E-01  1.81293887E+00 -1.75311147E-01 -1.81293887E+00
 -4.50893816E-02  5.94276456E-02 -2.72373439E-03 -2.82407904E-11 -2.37552231E-01
  7.69099975E-01 -3.66659556E-03 -5.66910906E-11 -5.88817868E-01  3.31415504E+00
  1.11363632E-02 -1.43757378E-10 -1.12303589E+00 -1.25643088E-04 -4.27189900E-02
  5.59062434E-03 -2.23594060E-15  8.02248462E-05 -3.09592152E-12 -1.83026155E-01
 -2.37360218E+00 -1.83026155E-01 -2.37360218E+00 -1.56871032E-14  2.69606875E-11
  8.01169857E-15  6.55542375E-01 -1.42526609E-11 -6.45300252E-11 -5.66258420E-15
 -5.83084027E-01  1.59185844E-11 -5.24806521E-11 -3.36847897E-15 -8.03226706E-01
  2.40622147E-11  8.46523603E-12  3.67987013E-12  5.73299308E-12 -9.02265485E-06
 -2.04365698E-15  2.05182793E-01 -7.30269248E-01  1.80803348E+00  7.30269248E-01
 -1.80803347E+00  8.63959937E-04  7.66384443E-01  3.26614231E-04 -9.23894252E-12
 -7.10961562E-01 -1.89423951E+00 -3.27510310E-04  1.27689200E-12  9.93112886E-01
 -1.79044078E+00 -6.59095486E-05  3.13970338E-11  5.22313245E-01  2.70475994E-01
  9.67226993E-02  1.71231144E-01  1.40060016E-15 -3.25995182E-05 -7.78830138E-12
 -6.00318947E-01  2.06983169E+00 -6.00318947E-01  2.06983169E+00  2.94278010E-04
  4.78628166E-03 -9.66940532E-01  6.53127764E-12 -2.42664861E-04 -1.16167778E-02
  1.46431200E+00 -1.40372217E-11  1.95297292E-03  2.97506129E-03 -7.16177642E-01
  7.49982676E-12 -3.16099267E-04  7.36748618E-04  2.25066657E-03  1.41158267E-03
  6.19177486E-13 -3.68016797E-02 -1.70685516E-12  1.77852699E-03  1.71823915E-04
  1.77852698E-03  1.71823920E-04 -3.81818256E-13 -3.22806141E-11 -8.49285018E-12
 -7.45984292E-01 -3.29543396E-11  6.33135990E-11  1.28671303E-11  1.60195887E+00
  5.32967657E-11 -2.14670710E-11 -6.30079777E-12 -8.55333720E-01 -2.64051199E-11
 -9.74275891E-12 -3.61339830E-12 -1.09491536E-11 -1.76431254E-04 -3.26964041E-13
  1.95252324E-01 -4.70440451E-01  3.27589615E-01  4.70440451E-01 -3.27589615E-01
  2.55466255E-02 -3.50286728E-01  8.21301366E-04  3.02209396E-11 -6.56674507E-01
  5.45243391E-01 -1.33522639E-03 -6.05281021E-11  1.33882137E+00  6.22854522E-01
  6.69853435E-04  2.25156748E-11 -9.40192616E-01 -2.30305133E-01  1.43106817E-01
 -1.47204948E-01  5.74258571E-15 -1.16060353E-04 -4.88933830E-12  6.11379968E-01
 -8.09403506E-01  6.11379968E-01 -8.09403506E-01 -8.04716914E-02 -1.55660722E+00
 -2.87763612E-03  1.54176876E-11 -1.59402193E-01  3.59170614E+00  4.70550572E-03
 -2.82746595E-11 -9.16270138E-02 -1.25329847E+00 -2.52612504E-03  1.19641313E-11
 -1.49815857E-02 -2.52883308E-01 -6.77928466E-01 -4.20954036E-01  5.28440542E-15
 -1.49031968E-04 -3.96950555E-12 -4.24362002E-01  1.13367567E-01 -4.24362002E-01
  1.13367567E-01  8.13167701E-03  6.57977556E-02  7.88219713E-05  3.61577916E-13
 -2.24963477E-02 -1.98472514E-01 -2.01886068E-04  1.00409093E-12  1.74838716E-01
  7.26801967E-02  9.01466861E-05 -2.60319113E-13 -7.11392646E-02 -3.99540740E-01
 -5.50636607E-01  1.00958229E+00 -1.94598089E-13 -2.06906100E-04  1.92465252E-12
  1.03591000E-01 -3.48396257E-02  1.03591000E-01 -3.48396257E-02  1.39265759E-15
  1.07849967E-14 -4.83975219E-13 -7.55534623E-05 -6.02014596E-15 -3.24598064E-14
 -1.04314895E-12  2.48843808E-04  3.83285602E-14  7.87598240E-15  7.98730743E-13
 -1.01082026E-04 -1.55749394E-14 -7.78291413E-14 -1.10699704E-13  1.97007559E-13
  9.99999980E-01  9.48064196E-12  1.17805998E-04 -8.78631930E-06  2.94215201E-07
  8.78631934E-06 -2.94215213E-07 -1.40185528E-06 -8.86203073E-05 -1.09056653E-02
  5.88062295E-15 -8.32577307E-05  1.68651320E-04  7.25398633E-02 -7.06317395E-15
  2.56816179E-04 -8.36521764E-05 -3.21867035E-02 -2.96333787E-15 -9.74116772E-05
 -2.01655811E-04 -4.09038587E-05  1.90598059E-04 -9.42309494E-12  9.98693544E-01
 -5.40777828E-15 -3.71334624E-06  1.71413905E-05 -3.71334623E-06  1.71413905E-05
 -5.48888496E-02 -4.95702622E-01 -6.46282161E-05 -7.36083544E-13  5.90472554E-02
  1.49614078E+00  4.25714809E-05  4.80637524E-13 -7.37379179E-01 -3.11780094E-01
 -2.17687169E-05 -8.58379233E-13  1.66691334E-01 -1.11056698E+00  7.64200630E-01
  9.05595677E-03  3.80566957E-15 -8.35885969E-05 -4.45634716E-12 -8.74193712E-01
  1.10222225E-01 -8.74193712E-01  1.10222225E-01 -2.01183037E-13 -2.74047677E-12
  4.57494731E-16  6.39188428E-02 -6.97014650E-13  7.67953288E-12  1.76017520E-15
 -1.00724165E+00 -3.79442235E-12  1.00351752E-12  6.02789810E-16  4.28639252E-01
 -8.56743384E-15 -2.80535849E-12  2.90173589E-12 -1.13274446E-12 -6.61565225E-05
  5.88748160E-15  1.26708606E+00  1.06515883E+00 -4.45786410E-01 -1.06515883E+00
  4.45786410E-01 -4.92720684E-01  1.26918664E-01 -4.10258938E-05 -7.34043263E-13
  3.43175220E-02  4.24252399E+00  7.07707919E-05  8.16208774E-13 -9.05194216E-02
 -2.11631319E-01 -3.69922928E-05  2.79177339E-14 -2.72577765E-01 -1.65950760E+00
 -1.63734311E+00 -1.64682311E+00 -5.73638686E-16  1.34447961E-06  3.15073993E-13
  1.51245634E-01 -6.10233619E-01  1.51245634E-01 -6.10233619E-01
Total SCF Density                          R   N=         276
  2.07221337E+00 -1.77271030E-01  5.21867298E-01 -7.67846869E-05  2.85052294E-04
  8.31481404E-01 -3.61576575E-13  9.02831958E-13  1.22604253E-15  5.56277328E-01
 -4.02222206E-02  8.45639487E-02 -8.04460283E-05  1.25594117E-12  6.66733629E-01
 -2.15251192E-01  5.41884482E-01  2.38163956E-04  2.88722724E-12  2.53613682E-01
  6.05165060E-01 -1.43925937E-05  1.17416673E-04  5.47645578E-01 -7.01006987E-16
 -7.41638444E-05  8.11824952E-05  3.60700414E-01 -6.33852872E-13  1.01309038E-12
 -1.25379324E-15  2.69330490E-01  1.24638868E-12  2.13789133E-12 -1.64348522E-15
  1.30400628E-01 -2.52378357E-02  5.93061114E-02  2.43490218E-04 -1.10326065E-13
  3.85236043E-01  1.56931905E-01  1.46761713E-04  3.25317301E-13  2.22802559E-01
 -3.23752809E-02  6.78309979E-02 -2.75378495E-03  3.65404624E-12  2.42125283E-02
  7.39175947E-02 -1.82314278E-03  1.85621491E-12  1.53054696E-02  9.13469763E-03
 -1.09545732E-05  4.87905976E-05  1.78627437E-01 -1.95448859E-16  1.93672586E-05
  4.80296275E-05  1.17650890E-01 -4.73228156E-16  7.31371820E-05 -5.92440673E-04
  3.83745966E-02 -2.22225376E-13  5.27097127E-13 -2.75696522E-15  2.63989442E-02
  9.35601675E-13  8.42711598E-13 -1.96480019E-15  1.27814675E-02  5.08517505E-13
  2.52626354E-13 -5.78408734E-16  1.25280004E-03 -8.36678208E-03  1.54539383E-02
  7.07268001E-04 -1.44448850E-12  1.07285580E-01  4.26688145E-02  4.62173896E-04
 -5.94714078E-13  6.20262009E-02  4.13339094E-03  1.57776973E-04  7.37709635E-14
  1.72716573E-02 -1.32444839E-02 -9.56217348E-03 -8.74909080E-05 -7.15210240E-13
  1.15804628E-02 -6.36678551E-03 -5.66308704E-05 -3.43826925E-13  6.45340354E-03
 -9.03208587E-04 -1.78063133E-05 -2.65642878E-14  1.83380432E-03  5.70649847E-04
 -2.71551462E-02  2.16109689E-02  6.99800823E-05  1.14416753E-12  8.31199873E-03
  2.39383587E-02  4.29882553E-05  5.84318827E-13  5.20783159E-03  2.99538096E-03
  1.47836535E-05  8.04858904E-14  1.42429703E-03 -1.39795290E-04  1.12384949E-03
 -1.61884055E-02 -2.94609884E-03  7.23505759E-05 -7.53131353E-13 -5.11383900E-02
 -1.56680557E-02  4.86999119E-05 -4.07891560E-13 -2.94888643E-02 -1.32701569E-03
  1.25957721E-05 -1.00107493E-13 -8.20450998E-03 -8.18471472E-04 -3.17838010E-04
  4.10933382E-03 -5.55603212E-17  9.77016070E-16  1.55296156E-12 -6.92349921E-05
 -2.05083903E-16  6.63414289E-16  1.02284022E-12 -3.35212194E-05  5.38429554E-16
 -5.52647054E-15  3.33623313E-13 -3.28564657E-06  1.51889881E-15 -8.62484504E-17
  9.16803328E-18  2.22762554E-16  8.61707623E-09  9.49533199E-06 -2.77432609E-05
 -4.42657859E-02 -1.28947509E-16 -7.84709646E-05 -4.62194376E-05 -2.91551433E-02
 -4.52774958E-17 -6.08200617E-05  1.43337533E-04 -9.50963855E-03  3.35152630E-17
 -5.09763984E-05  3.26743138E-06 -4.83777302E-06  2.48364278E-06 -8.26754145E-14
  2.35659913E-03 -8.78435259E-14  2.26852172E-13  5.62181683E-16 -4.01127505E-02
  1.19758639E-12  4.09910575E-13  4.21162122E-16 -1.94212243E-02  7.54877380E-13
 -2.00455809E-13  2.20375108E-16 -1.90360853E-03  3.11900923E-13  7.11148790E-14
 -6.13447134E-14 -4.36666330E-14  4.99248455E-06 -1.85742404E-16  2.89250105E-03
 -3.58871996E-02  8.30385163E-02  5.42374644E-05  2.56684957E-01 -2.00095280E-01
  3.21632114E-02  2.76623263E-05  1.24278092E-01 -1.13407365E-01  6.52149400E-03
 -2.98459464E-06  1.21813554E-02 -3.17988935E-02 -5.72272694E-03  1.97789698E-03
  1.62009487E-02 -3.19473400E-05  2.15101176E-05 -1.85093641E-02  2.01555382E-01
  2.73389341E-02 -6.58796393E-02  1.13373029E-03  1.21710518E-01 -9.32450192E-02
 -8.94205517E-02  7.56854713E-04  5.89280771E-02 -5.49781544E-02 -1.02542935E-02
  2.40245465E-04  5.77594844E-03 -1.52007561E-02 -4.81504052E-04 -3.37063874E-03
  6.74610505E-03 -1.51482476E-05 -4.85646922E-05 -8.77645624E-03  7.26602495E-02
  4.53940626E-02 -3.58871996E-02  8.30385163E-02  5.42374644E-05 -2.56684957E-01
 -2.00095280E-01  3.21632114E-02  2.76623263E-05 -1.24278092E-01 -1.13407365E-01
  6.52149399E-03 -2.98459464E-06 -1.21813554E-02 -3.17988935E-02 -5.72272694E-03
  1.97789698E-03  1.62009487E-02  3.19473400E-05  2.15101176E-05  1.85093641E-02
 -3.53306592E-02 -3.96623541E-02  2.01555382E-01  2.73389341E-02 -6.58796393E-02
  1.13373029E-03 -1.21710518E-01 -9.32450192E-02 -8.94205517E-02  7.56854713E-04
 -5.89280771E-02 -5.49781544E-02 -1.02542935E-02  2.40245465E-04 -5.77594844E-03
 -1.52007561E-02 -4.81504051E-04 -3.37063874E-03  6.74610505E-03  1.51482477E-05
 -4.85646922E-05  8.77645624E-03 -3.96623541E-02 -7.86516380E-03  7.26602495E-02
  4.53940626E-02
Mulliken Charges                           R   N=           3
 -9.11411343E-01  4.55705672E-01  4.55705672E-01
ONIOM Charges                              I   N=          16
           0           0           0           0           0           0
           0           0           0           0           0           0
           0           0           0           0
ONIOM Multiplicities                       I   N=          16
           1           0           0           0           0           0
           0           0           0           0           0           0
           0           0           0           0
Atom Layers                                I   N=           3
           1           1           1
Atom Modifiers                             I   N=           3
           0           0           0
Force Field                                I                0
Int Atom Modified Types                    I   N=           3
           0           0           0
Link Atoms                                 I   N=           3
           0           0           0
Atom Modified MM Charges                   R   N=           3
  0.00000000E+00  0.00000000E+00  0.00000000E+00
Link Distances                             R   N=          12
  0.00000000E+00  0.00000000E+00  0.00000000E+00  0.00000000E+00  0.00000000E+00
  0.00000000E+00  0.00000000E+00  0.00000000E+00  0.00000000E+00  0.00000000E+00
  0.00000000E+00  0.00000000E+00
Cartesian Gradient                         R   N=           9
  0.00000000E+00  0.00000000E+00  0.00000000E+00  0.00000000E+00  0.00000000E+00
  0.00000000E+00  0.00000000E+00  0.00000000E+00  0.00000000E+00
Dipole Moment                              R   N=           3
  2.86678042E-03 -9.66887968E-12 -8.65535127E-01
Polarizability                             R   N=           6
  7.16612000E+00 -7.90140522E-14  7.81735240E+00  2.18672650E-03 -3.49605900E-11
  6.68613943E+00
HyperPolarizability                        R   N=          10
 -6.15957144E-01  4.85648913E-11 -3.37150963E-02  3.00258881E-10 -5.46278386E+00
 -5.59084363E-13 -1.21672995E+01 -9.10706910E-02  3.44887803E-10 -7.53673749E+00
Quadrupole Moment                          R   N=           6
 -1.23786284E+00  1.43757397E+00 -1.99711130E-01  6.23316299E-15  8.12725307E-05
 -2.73419813E-12
QEq coupling tensors                       R   N=          18
  1.69032290E+00  1.24760228E-14 -1.48703488E+00 -8.09371200E-04  1.36877176E-11
 -2.03288016E-01  2.63380493E-01  5.02637083E-05 -2.29100017E-01 -2.21791117E-05
  3.19624864E-01 -3.42804762E-02  2.63380493E-01 -5.02637083E-05 -2.29100017E-01
 -2.21791117E-05 -3.19624864E-01 -3.42804762E-02
NFreq for FD properties                    I               12
Frequencies for FD properties              R   N=          12
  0.00000000E+00  2.50000000E-03  5.00000000E-03  1.00000000E-02  1.50000000E-02
  2.00000000E-02  2.50000000E-02  3.00000000E-02  3.50000000E-02  4.00000000E-02
  4.50000000E-02  5.00000000E-02
Alpha(-w,w)                                R   N=         108
  7.16612000E+00 -7.90140522E-14  2.18672650E-03 -7.90140522E-14  7.81735240E+00
 -3.49605900E-11  2.18672650E-03 -3.49605900E-11  6.68613943E+00  7.16644833E+00
 -7.90634919E-14  2.18689707E-03 -7.90634919E-14  7.81747526E+00 -3.49617002E-11
  2.18689707E-03 -3.49617002E-11  6.68632355E+00  7.16743359E+00 -7.90745507E-14
  2.18740898E-03 -7.90745507E-14  7.81784388E+00 -3.49706930E-11  2.18740898E-03
 -3.49706930E-11  6.68687601E+00  7.17137887E+00 -7.92497578E-14  2.18945950E-03
 -7.92497578E-14  7.81931878E+00 -3.50016682E-11  2.18945950E-03 -3.50016682E-11
  6.68908729E+00  7.17796948E+00 -7.95904141E-14  2.19288728E-03 -7.95904141E-14
  7.82177854E+00 -3.50528495E-11  2.19288728E-03 -3.50528495E-11  6.69277795E+00
  7.18722826E+00 -8.00323349E-14  2.19770786E-03 -8.00323349E-14  7.82522557E+00
 -3.51250140E-11  2.19770786E-03 -3.51250140E-11  6.69795583E+00  7.19918751E+00
 -8.05633772E-14  2.20394320E-03 -8.05633772E-14  7.82966322E+00 -3.52178287E-11
  2.20394320E-03 -3.52178287E-11  6.70463193E+00  7.21388929E+00 -8.01058438E-14
  2.21162197E-03 -8.01058438E-14  7.83509585E+00 -3.54345442E-11  2.21162197E-03
 -3.54345442E-11  6.71282055E+00  7.23138583E+00 -8.10148389E-14  2.22077988E-03
 -8.10148389E-14  7.84152878E+00 -3.55594443E-11  2.22077988E-03 -3.55594443E-11
  6.72253930E+00  7.25174007E+00 -8.21313503E-14  2.23146009E-03 -8.21313503E-14
  7.84896835E+00 -3.57059937E-11  2.23146009E-03 -3.57059937E-11  6.73380926E+00
  7.27502625E+00 -9.79685083E-14  2.24371374E-03 -9.79685083E-14  7.85742192E+00
 -3.58716390E-11  2.24371374E-03 -3.58716390E-11  6.74665508E+00  7.30133075E+00
 -9.91413982E-14  2.25760057E-03 -9.91413982E-14  7.86689788E+00 -3.55209195E-11
  2.25760057E-03 -3.55209195E-11  6.76110515E+00
Beta(-w,w,0)                               R   N=         216
 -6.15957144E-01  4.85648913E-11 -3.37150963E-02 -5.46278386E+00 -5.59084363E-13
 -9.10706910E-02  4.85648913E-11 -3.37150963E-02  3.00258881E-10 -5.59084363E-13
 -1.21672995E+01  3.44887803E-10 -5.46278386E+00 -5.59084363E-13 -1.21672995E+01
 -9.10706910E-02  3.44887803E-10 -7.53673749E+00 -6.30298746E-01  4.65436593E-11
 -3.27402575E-02 -5.32761489E+00 -5.59015697E-13 -9.13622204E-02  4.65976831E-11
 -3.27433144E-02  3.14602960E-10 -5.59180546E-13 -1.27566296E+01  3.53381154E-10
 -5.32943793E+00 -5.59052049E-13 -1.27565611E+01 -9.13617529E-02  3.53352827E-10
 -7.63867055E+00 -6.30540862E-01  4.65760978E-11 -3.27476557E-02 -5.32886364E+00
 -5.59101201E-13 -9.13938123E-02  4.67146098E-11 -3.27598889E-02  3.14668985E-10
 -5.59399730E-13 -1.27586446E+01  3.53527693E-10 -5.33615958E+00 -5.59163902E-13
 -1.27583704E+01 -9.13919406E-02  3.53445660E-10 -7.64183519E+00 -6.31510826E-01
  4.66578863E-11 -3.27772777E-02 -5.33386571E+00 -5.59198851E-13 -9.15203690E-02
  4.71897901E-11 -3.28262984E-02  3.14983210E-10 -5.60295894E-13 -1.27667111E+01
  3.54105665E-10 -5.36311029E+00 -5.59444830E-13 -1.27656120E+01 -9.15128530E-02
  3.53801458E-10 -7.65451069E+00 -6.33132784E-01  4.67886409E-11 -3.28267508E-02
 -5.34222770E+00 -5.59114372E-13 -9.17319695E-02  4.79756498E-11 -3.29373791E-02
  3.15372457E-10 -5.61783754E-13 -1.27801792E+01  3.55096395E-10 -5.40825716E+00
 -5.59580745E-13 -1.27776969E+01 -9.17149489E-02  3.54385124E-10 -7.67569708E+00
 -6.35414829E-01  4.70637735E-11 -3.28962305E-02 -5.35398776E+00 -5.59092122E-13
 -9.20296300E-02  4.90992280E-11 -3.30937333E-02  3.16057127E-10 -5.63794882E-13
 -1.27990848E+01  3.56466909E-10 -5.47194735E+00 -5.59840714E-13 -1.27946484E+01
 -9.19990981E-02  3.55216479E-10 -7.70548570E+00 -6.38368426E-01  4.73780014E-11
 -3.29859359E-02 -5.36919987E+00 -5.59157175E-13 -9.24147873E-02  5.05569115E-11
 -3.32962142E-02  3.16911541E-10 -5.66495770E-13 -1.28234783E+01  3.58254469E-10
 -5.55467434E+00 -5.60395672E-13 -1.28164995E+01 -9.23665316E-02  3.56284644E-10
 -7.74400564E+00 -6.42008542E-01  4.58663899E-11 -3.30961512E-02 -5.38793451E+00
 -5.71892024E-13 -9.28893127E-02  5.23643735E-11 -3.35459363E-02  3.22825160E-10
 -5.69802444E-13 -1.28534254E+01  3.60870802E-10 -5.65708551E+00 -5.73034870E-13
 -1.28432927E+01 -9.28188554E-02  3.56049206E-10 -7.79142485E+00 -6.46353830E-01
  4.64658429E-11 -3.32272276E-02 -5.41027944E+00 -5.70814718E-13 -9.34555313E-02